band_gap,formation_energy_per_atom,full_formula,task_id
7.1511,-4.0560039801357135,Ca2Al2F10,mp-8836
1.3452,-1.2807595711145838,K4V2Ag2S8,mp-8900
1.0361999999999998,-0.5224141055897434,Na16Ti2As8,mp-9071
2.3206,-2.175164914617458,Rb1Tb1S2,mp-9365
1.9468,-0.9808881607812509,Ta2Tl2Cu4S8,mp-9815
4.256500000000001,-2.8548623236850657,Ca2Fe2P4O14,mvc-5578
4.8958,-2.6906572314692987,Li24B16O36,mp-1020024
4.457600000000001,-3.340162333380953,Na12La12Si12O48,mp-1020648
0.07430000000000002,-0.5795876799087498,K16Mo16N32,mp-1029815
0.043600000000000534,-0.7377084768676918,Ca10Ru4N12,mp-1029860
1.9741,-1.7210325806330815,Rb1Ho1Se2,mp-10783
1.0756,-2.4148192658925,Li1Ru1F6,mp-1078834
4.167000000000002,-2.8217892091071426,Ba1Ge1P2O8,mp-1095485
3.6246,-1.6992478007413794,Cs4Ba4I12,mp-1096925
0.3807999999999998,-1.0819202583333325,Sc1Te1Rh1,mp-1100405
1.0537000000000003,-1.584028663463542,Ba2Y2Cu2Se6,mp-1101801
1.4249999999999998,-0.8079058960416668,Zn4S8,mp-1102743
0.7001999999999997,-0.3232134233333343,Sb4Te4Ru4,mp-1102857
0.7719999999999998,-1.0957112327011491,Cs2Gd2Cd2Te6,mp-1104011
0.3552999999999997,-0.4771831597959186,Ba2P8Au4,mp-1104130
2.6387,-1.281739480441842,Co3Se4Cl2O10,mp-1105151
1.1917,-1.17913131453125,Li4Mn2Sn2S8,mp-1105291
1.8577,-2.4031255284375006,Nd4Sc4S12,mp-1105614
0.032500000000000195,-0.20273086812500016,Nd12Ru4,mp-1106300
2.4146,-1.2589633607413795,Cs2Sc1Tl1I6,mp-1112484
1.3573,-0.9556529897968752,K3V1Se4,mp-1147776
2.3843,-0.3049730965833334,Ag1Br1O3,mp-1178562
2.9259000000000004,-3.4294621325000003,La6Fe2O12,mp-1180667
2.4657,-1.2700717603448273,Cs8Hg4Br16,mp-1183950
0.32550000000000034,-0.02196418919999985,Lu1Mg149,mp-1185595
1.0379,-2.487240487437501,Pr2Y6S12,mp-1188199
0.016599999999999948,-0.8457845793749996,Eu10Bi6,mp-1188517
1.4037000000000006,-2.7876510273460013,La4Mn2Ni2O12,mp-1188812
0.3780999999999999,-0.7215154029999999,Dy6Cu6Sb8,mp-1189135
2.8782,-2.64699475659938,Ba3Zn3Te1P2O14,mp-1190416
6.1004000000000005,-4.0184393687674715,Rb4La4F16,mp-1190838
0.8435999999999999,-0.2005345546921181,Rb4Ge12As12,mp-1192510
4.1226,-2.18645992458944,Cs4Sc4Se8O24,mp-1194629
3.2839,-2.7239712093749997,Ba6B6Pb4Br2O18,mp-1194742
1.2655999999999998,-0.48555138659999997,K32Nb4Sn4As20,mp-1194900
1.1220000000000003,-1.1880942480808336,Al4Sb8Se8Cl16,mp-1194909
2.4312,-2.3624018522912094,K4Fe4Ni4P8O32,mp-1194949
0.1372,-0.6259956498348209,Ce4Tl4P8Se24,mp-1195195
2.6466,-1.3070112945370371,La4Ag4I16O48,mp-1195616
0.9687,-0.6216453156432259,Mn4As8H64S32N16,mp-1195801
1.2440000000000002,-0.7689622055194805,Ba18Ga18P30,mp-1196108
5.7306,-2.2413817759829637,B40H32N8O64,mp-1196660
1.3432000000000002,-0.4918624911262401,K12Ag12P12Se36,mp-1196972
3.6525,-1.6550851371807145,K16Bi8H32Cl40O16,mp-1197978
0.3945999999999996,-1.7271512588749998,Na12Ru4O16,mp-1198628
4.8848,-2.557037362109717,Cs2Ga2P6H2O20,mp-1200666
3.7823,-2.629398069552359,Cs4In4P8O28,mp-1200734
1.3446000000000002,-0.5156544508968341,Cs8Cu8P8Se24,mp-1201069
2.6344,-1.348030925291667,S8I8O44,mp-1202716
2.0088,-2.424944989652337,Cs4Lu28S44,mp-1202825
1.9441,-2.184149157890625,Gd4V4Se8O32,mp-1203163
2.0428,-2.1419295800312512,K4V8Se4O28,mp-1203567
3.0027,-1.2219347705099994,V4N12O40,mp-1205113
1.4680000000000002,-1.6080902035507296,Sb16Se80F96,mp-1205478
1.0451,-0.5144551473399013,Cs4P4Pd2,mp-1205610
0.08030000000000026,-0.8991492116666665,Tm1Bi1Pd1,mp-1206744
5.0677,-3.6198919534375014,Tm4Be4Si2O14,mp-1207992
3.1373999999999995,-1.3795329290792302,Tb8Si16C4N24,mp-1208544
2.8019000000000003,-2.82400364375,Sr8Mg8V16O56,mp-1208827
0.0243,-2.026096092711028,Rb4Sm4Se8O32,mp-1209322
2.0813,-1.0768730672413795,Rb4Mn2I8,mp-1209441
1.9406000000000003,-2.480155703210261,Mn2V1P1O7,mp-1210613
6.8028,-3.8082949539937503,K8Tm4F20,mp-1211536
4.9914000000000005,-2.534895296225,K8Tb4Cl20,mp-1211737
6.7859,-3.80705148305625,K8Lu4F20,mp-1211957
2.3067,-1.9588964018437505,K16Cd8Ge8O32,mp-1212732
2.8231999999999995,-3.4691834928409104,Er6Sb2O14,mp-1212828
3.3754,-3.461229895,Er12Al12Cr8O48,mp-1213214
0.9583,-1.1465801017771884,Cs2Ho2Nb12Br36,mp-1213418
0.9846,-1.1516821912964188,Cs2Sm2Nb12Br36,mp-1213498
3.4902,-2.02829132812069,Cs4La8Br28,mp-1213600
4.3043000000000005,-3.543167711309524,Ca4Y4B4O16,mp-1213894
1.755,-0.13429750711805552,B8Se16,mp-1214789
1.5141,-1.7826181095370368,Ti1Tl2Te3O12,mp-1216797
4.2159,-3.5809723515625014,Sr2Sm2Al6O14,mp-1218016
4.8954,-3.2623131765649864,Rb2Al2Si6O16,mp-1219605
1.9412,-2.3303081311265674,Rb6Er14S24,mp-1219776
0.7406999999999999,-0.6287496154218752,Na1Sb1Se2,mp-1220879
3.0428999999999995,-1.7158337776588897,Na1Ni2Mo2H3O10,mp-1220997
6.212999999999999,-0.4493205345033324,N8O4,mp-1221446
4.5371000000000015,-3.2753437427220007,Na2Ca1Mg5Si8O22F2,mp-1221470
2.2794,-2.8576635459523816,Li8Ti4Cr4P12O48,mp-1223017
0.012599999999999945,-1.3335851020049996,Na4La31Co5I60,mp-1223438
4.464600000000001,-3.6511211986428576,K1Nd9Si6O26,mp-1223480
1.2363000000000004,-1.7927993169390446,Cs16Mn12O24,mp-1226457
1.7071,-2.4283628579166665,Ba6Fe4Te2O18,mp-1228445
1.3057,-0.8427596313541663,As4Rh4S4,mp-1228745
1.6885,-1.1049538997844828,Cs2Sm2Zn2Te6,mp-12343
2.3400000000000003,-2.9128341604166663,Lu4Sb4O16,mp-1237257
1.2728000000000002,-1.207887086588542,Ho4Ag4Se8,mp-12955
0.9836999999999998,-2.0326263702975007,Ba2Cu2Te2F2,mp-13287
2.0869,-2.0272366667968758,Ca1Se1,mp-1415
0.05259999999999998,-1.3891499319999998,Er8Te12,mp-14643
3.4477,-2.9185498189127825,Cs8Ti4P8O32,mp-14864
1.659,-0.9864839364735992,Cs4Nb2Cu2Se8,mp-15223
2.1492,-2.6715577025778385,V6P18O54,mp-15361
1.1893000000000002,-0.5638578093125002,Na8Se16,mp-15514
1.1021999999999998,-3.2639019135000016,Dy2Te1O2,mp-16037
0.34609999999999985,-2.84823208875,Sr4Gd2Ru2O12,mp-16796
5.297999999999999,-2.9581706294123387,K4Al4P8O28,mp-17031
2.6109,-2.111796163333333,Li12Cr6O24,mp-17159
0.19489999999999966,-0.8687982854375008,Rh8S12,mp-17173
2.7817,-3.1275228594149658,Sr1Ti4P6O24,mp-17298
0.3767999999999998,-0.3747002099137933,Rb20Si4As12,mp-17490
2.4674,-1.33407627744,Sr8Ta4N12,mp-17518
2.4256,-2.2082132241269843,Tl4Mo4P4O24,mp-17542
2.2778,-2.192233351547619,Li4In4Ge4O16,mp-17854
0.7873000000000001,-1.5416852189285717,Ba4Dy8Te16,mp-17927
0.2738999999999998,-0.16657832616666676,K3Ga9,mp-181
2.0531,-2.9632835154166663,Ba1Nd2Ni1O5,mp-18763
2.1171,-2.7491050641396098,Li2V2P4O14,mp-18911
3.0556,-2.419080970318966,Rb4V4O12,mp-19031
0.05549999999999988,-0.4229912867968753,In2Ag2Se4,mp-20554
0.7159,-0.633542555,Li3Sb1,mp-2074
0.002299999999999969,-0.446761674444444,Ce3In3Ni3,mp-21492
0.5880000000000001,-1.333484461875,Co2O2,mp-22408
0.5004999999999997,-0.36097536905747096,Cs12In2As6,mp-22506
0.44030000000000014,-0.44127778666666667,Fe1Br2,mp-22880
1.4489999999999998,-1.71294278272,K2Pd1Cl4,mp-22956
1.9099000000000004,-1.7225040901519997,Sb2Pb2Cl2O4,mp-23138
3.2839,-2.453401791541668,Bi12B20O48,mp-23549
2.8036,-2.1610545372991066,Co4Bi4P4O20,mp-23595
4.2591,-1.8641223063412495,Ba2H8O6,mp-23904
4.8217,-2.112879182302858,Na10Sc2H8C8O28,mp-24144
2.9687,-0.20568156448241395,Rb1H1,mp-24721
2.0245,-0.3642291600000003,Be1Te1,mp-252
0.7880000000000003,-3.340405018655304,Y2Ti2S2O5,mp-25305
4.3666,-2.5185634331929414,Ge10F24,mp-27342
2.8874,-1.0400788215625012,Se8O20,mp-27358
0.018299999999999983,-0.3269470960416676,La3Ni9,mp-2764
4.0214,-1.9791182385386668,Na6Cd1Cl8,mp-28022
1.7624,-0.9638817024017858,Na8S20,mp-28127
2.4308,-2.164137040898148,Na9Re3O15,mp-28205
1.8574,-0.7818762188362067,Rb4I12,mp-28328
3.1872000000000007,-3.5344146650961537,Nd2Ta6O18,mp-28653
0.4362000000000004,-0.26019686041666645,Tl16Sn8Te24,mp-28662
1.4605,-0.9147732380416664,Na8Sn2Se8,mp-28768
1.5976999999999997,-1.4803857064285717,Ca2Au4O8,mp-2898
2.6080000000000005,-1.6874531856249997,Tl3V1O4,mp-29047
0.7477999999999998,-1.0609743685511368,Nb3S1Br7,mp-29057
1.3634,-1.9629985035227269,Li5Bi1O5,mp-29365
0.411,-1.01601193225,K8Zr4Te12,mp-29602
0.4796,-0.7110738349687493,Na8Mn8Se12,mp-29745
0.40180000000000016,-0.4718515641666666,Ag8Hg4O8,mp-29816
1.5818,-0.7372495366758247,P2Pd3S8,mp-3006
4.8964,-0.07232127229833314,Ga6B6H36,mp-30150
0.6210999999999998,-1.4367745330000001,Na1Tl1O2,mp-3056
0.1975,-1.5404698400809096,Hg8O2F12,mp-31132
1.1532,-0.4171699583333333,Zr1Co1Bi1,mp-31451
3.0674,-1.1508045328749998,K4Pb8Br20,mp-31508
1.4507999999999996,-1.0060255796599629,Rb2Pt3S4,mp-4030
1.0516,-0.3502907551587305,Na20Ge4P12,mp-4172
5.3034,-3.6786220399999987,Hf2Si2O8,mp-4609
2.4505000000000003,-2.62644028125,Nd1Cu1O2,mp-4886
1.7638999999999996,-1.4992936128472232,Ca2Sb20S12O20,mp-504882
0.019200000000000102,-2.310224707114,Na4Cu4F12,mp-505085
2.0103,-1.270780850177084,K8In8S16,mp-505412
0.3845000000000001,-1.0537436104635418,Na4Hf4Cu4Se12,mp-505448
3.9132,-1.5170293087187503,Zn8Se8O24,mp-5338
0.13349999999999973,-0.33978894499999984,Ge20Ir16,mp-541844
0.8529,-2.4442922260325,Gd1Bi2Cl1O4,mp-549695
2.9515,-2.1192980795,Ba2Bi2I2O4,mp-551243
2.7276,-1.6739513207355956,Tl6Hg4S6Cl2O24,mp-554279
3.8061,-2.6398081930434785,Li8Al6Ge6Br2O24,mp-554733
3.3306,-2.7481210370159994,Mn1Sb2F12,mp-555052
4.3422,-3.1960850541217964,Na8Er8B8O28,mp-555104
3.8024,-3.0089709209347832,K2Ca20V14O56,mp-555127
1.3164000000000002,-1.5229450043750006,Li4Ni2O6,mp-556550
4.7576,-2.789935165734473,Na12B24P4O52,mp-556801
4.9125999999999985,-2.9239888500175004,K2Sb2F12,mp-556888
2.408,-1.9638455120366376,Sr6Fe4Se12O36,mp-556960
0.6705000000000005,-2.771104219294474,K4Nb11Al2O20F1,mp-557200
5.166600000000002,-2.7539516261505548,Rb4Si2P8O26,mp-557355
4.2942,-2.8467555635056256,Tm4Se4O12F4,mp-557457
3.2302,-2.3033489732794123,K8Ba2Ge6O18,mp-557584
3.6234,-2.363221072702381,K4Li2B2O6,mp-557632
3.2535,-1.840105783319166,Hf4S4Cl24O4,mp-557792
6.1953,-3.4884724312492867,Rb16Li4Zr12H8F76,mp-557793
1.8039999999999996,-1.911908800286459,Dy6Si2Cu2S14,mp-557998
2.6683,-1.1540438795133559,Cs2Ag2N4O12,mp-558217
0.7259000000000002,-0.6791617893779399,Rb8Sb16Au24S40,mp-558739
7.3825,-3.8607578865175,Ba1Si1F6,mp-5588
3.816,-2.47121194413961,Fe4P8Pb4O28,mp-560012
2.907,-1.4703051518839283,Na24Al8S24,mp-560538
0.5874,-1.9649333366582504,K8Cu4S4Cl8O16,mp-560601
1.6859000000000002,-2.16161067199,Sb16I8Br16F88,mp-560928
0.18009999999999948,-2.8999447623928583,Na4Ce4P16O48,mp-561049
3.9304,-2.866803261636837,Ba2Fe4P4O14F4,mp-561063
3.1839,-3.3520771943154752,Gd6B2W2O18,mp-561177
5.6852,-3.150895277048701,Na4Lu4P8O28,mp-561535
3.0587,-2.1196228398152708,Cs4Li4Cr4O16,mp-561778
2.6334000000000004,-1.7713772560325003,Sr4Co8Te12Cl8O32,mp-562378
2.3494,-0.885557505,Tl1Br1,mp-568560
1.4027999999999998,-0.4859690769255202,Rb16P24Se48,mp-569883
2.1115,-1.0913030046080001,Pb2Cl8,mp-570355
5.4214,-2.211002881007273,Ca4Al8Cl32,mp-570703
0.9825999999999996,-0.4553195739236118,Nb8Tl12Cu4Se48,mp-570757
0.1783999999999999,-0.07343774791666688,Ag12Te8Au4,mp-5710
1.1799,-1.590215391524585,Cs4La2Ta12Br30O6,mp-572512
1.8229,-3.2280150819718187,K2Sr2Nb4O12F2,mp-579086
0.19559999999999975,-1.4591743201041671,Eu6Ge6S18,mp-581575
0.5930999999999997,-0.9832150492672409,Cs1Sc3Cu2Te6,mp-607477
4.1556,-1.0432987236845448,Lu4C6N12,mp-607712
1.6692,-2.4084869913281253,La2Cu2S2O2,mp-6088
0.4967000000000002,-1.8336135549090904,Na4Cu2C4O12,mp-6090
0.1746000000000003,-2.7605704547500003,Ba4Pr2Ru2O12,mp-6183
1.1002,-2.69588646183875,Pr2Mn2Ge2O10,mp-619064
1.1940999999999995,-1.0093511713802084,Ho4Cu4Pb4Se12,mp-6244
0.6621000000000001,-0.3899214586363636,Te6Pd8Br8,mp-638749
3.056,-2.575130691345186,Rb8Ti8As8O40,mp-6394
1.9459,-0.3100363316620368,Na6B54Se48,mp-640950
2.4005,-1.708675428279122,Cs3V1H8Cl6O4,mp-644672
1.3757,-2.5837297292675,Na4Cr4F24,mp-646192
0.008199999999999985,-0.8130353268518518,Ca6In4As8,mp-650513
0.7322000000000002,-1.537506471598458,Cs2Tb6Te7N2,mp-655613
0.5647,-0.9003154485844441,Cu12N24O72,mp-662543
2.6592,-2.1913704718833342,Na4Li4Ge16O36,mp-6663
0.045399999999999885,-2.073126318758681,Sr24Ti21S63,mp-676818
0.06009999999999983,-0.15564175556250026,K12Ga52,mp-680682
3.2757,-3.396303937083333,Ca4Gd1B3O10,mp-6943
0.4090999999999996,-2.3892137785000007,Sr2La2Ni2Ru2O12,mp-694873
2.8381,-2.4042848727959187,Cd1Fe2Sb2P6O24,mp-703231
2.4058,-2.413826679542857,Fe4P8Pb6O32,mp-704946
3.0254000000000003,-2.571058377725,Na4Ca8V12Zn8O48,mp-706235
1.4003,-1.993692995987778,Na2Ag2F8,mp-7386
1.2493,-2.9374527042320313,K8Ti6Mn2P12O48,mp-743671
0.5005000000000002,-1.1385278576578957,Na4Ni5O10,mp-753301
3.3035,-4.204152233313334,Gd2O2F2,mp-753721
3.9759,-3.1460376226249998,K1Ho1O2,mp-754883
3.3897000000000004,-3.775222675526316,Tm6W1O12,mp-756123
1.7142999999999995,-2.3519879578676472,La12Pt12O44,mp-768523
2.7671,-1.8767468058141763,Cs16Ge4O16,mp-779716
2.9092,-2.9110015103017237,Cs2Sm2O4,mp-7977
1.1976,-1.7180510069642858,Sr4As2O1,mp-8299
1.1129000000000002,-0.8466072118534487,Cs4Te4,mp-8361
2.8682,-1.96427730484375,Cd2S2O8,mp-8459
1.4612999999999996,-2.473393818104167,Ho12S18,mp-878
0.246,-1.8993407845368535,Rb2Pd4F10,mp-8958
2.1651,-2.1315720904579742,Cs1Nd1S2,mp-9081
1.9691,-2.8609772069166666,La16Au8O36,mp-9160
1.0210999999999997,-0.28346486984127023,Fe1Si4P4,mp-9198
2.4152,-2.160450387117458,Rb1Lu1S2,mp-9370
1.7106,-0.8696317919635419,K4Ge2Se6,mp-9692
2.0894,-1.2641361388771426,Sr4Li1B3N6,mp-9723
4.9456,-3.142781562619047,Sr4B8O16,mp-9749
4.8104,-2.489863323000001,Lu4H8Cl4O8,mp-976349
3.8235,-2.748310340755379,Cs2K1Tl1F6,mp-989526
0.25259999999999994,-1.9801558092742853,K1Mn2O4,mp-1003314
4.4843,-2.605495981086667,Ba4Br4Cl4,mp-1012551
0.19390000000000016,-0.6664646,Ho1Ni1Bi1,mp-1018139
5.0076,-2.9546783644739567,Ba4Na4B20O36,mp-1019554
5.1751000000000005,-2.9717964687631584,K2Mg12P14O48,mp-1019806
1.8172,-0.6306500380711112,K1Na2B1N2,mp-1019888
0.4970999999999997,-0.5267360479519994,Ca1Zn2N2,mp-1029258
0.5362999999999998,-1.250402284166667,Ba2Y2Cu2Te6,mp-10336
3.8468,-2.86042696415,Na2Nb2O6,mp-1078295
1.6839999999999995,-2.275313812604168,Pr2Fe2Se2O3,mp-1080777
1.4272999999999998,-2.3021468167297923,Ba2Ag2S2F2,mp-1086652
1.2996,-3.374311486750834,Ho2S2F2,mp-10931
1.0008999999999997,-0.31588856499999923,Nb1Co1Sn1,mp-1094088
1.8318,-1.342561782374483,Cs2Au2Cl8,mp-1095499
0.3647,-0.6571556507466667,Eu4H8,mp-1102496
2.5887,-1.3304677316071434,Al4Pb2S8,mp-1103722
1.5416,-0.6348327345848219,Tb2Tl2P4Se12,mp-1105141
2.2505,-1.0670255538436484,Rb4Ag2P2S8,mp-1105212
6.1271,-3.1288928783139998,K2Li1Ga1F6,mp-1111112
4.7360000000000015,-2.9382193159536505,Na16Mg8P8O32F8,mp-11165
0.09890000000000043,-0.21180097294117672,Ce1Fe4Sb12,mp-1181682
0.22339999999999985,-1.7642121279523808,Na6Os3O12,mp-1190635
2.5064,-1.5616443984523816,S4I2O15,mp-1191944
0.14210000000000012,-0.3158593732445141,Rb4Zn10As8,mp-1192151
1.1106000000000007,-1.5589773771257145,Dy12Te12N4,mp-1192365
2.9871,-1.0390154797386666,Hg6Bi4Te4Cl16,mp-1192395
0.9316,-0.5764710556017992,Rb2Nb4P2Se20,mp-1192452
1.6613,-1.1625591536545572,Cs4Sm4Ge4Se16,mp-1192812
2.5072,-1.4635095044230768,Te4Pb6Br4O12,mp-1193128
1.6785,-0.5668434200321073,Cs4P4Pb4Se16,mp-1193277
2.6608,-2.559104834104286,Na8Sr4Mn4V8O32,mp-1194593
5.2402,-1.6093001237202271,Li8H32S8N8O32,mp-1194832
1.4017000000000002,-0.533655081842687,K16Ge4P16Se48,mp-1195433
2.6421,-1.8609875830644451,Na8Cd6H4C8O28,mp-1195487
3.9656,-3.0732210590833327,Na18Ho6Si12O42,mp-1195700
2.3476,-1.3485884115277782,Li16Sn4S16,mp-1195718
4.821999999999999,-3.1879743804204885,Ca2Mg5Si8H2O24,mp-1196550
3.2463,-1.112925402755655,Rb12H24I36O108,mp-1196732
1.5558,-0.51130184736077,K12As4P12Se36,mp-1197620
1.916,-1.661397242751346,Nb4Al8Se8Cl32,mp-1198176
3.9248,-1.5997852780363715,K4Mg2H24Se4O28,mp-1198329
2.0801,-0.5760958343633332,K8Li4H24N12,mp-1198663
4.481,-2.3186364300714284,K24Li24Mo24O96,mp-1199453
1.3384000000000005,-0.9507419652777784,Ba8Ga4Sb4Te20,mp-1200935
0.1832999999999998,-1.0831524196041304,Cu10Se8Cl4O24,mp-1201155
0.21259999999999968,-1.4838583764204545,Dy14C4I24O2,mp-1201241
1.4854000000000005,-1.6420125691399994,Tb16Te12N8,mp-1201395
1.6219,-2.20698408021875,K8V8As8O40,mp-1202651
0.7113999999999998,-0.6109629809542854,Li4Ca28Ge12H12,mp-1202682
0.4748000000000001,-1.6743706823333329,Tb40Rh8Br72,mp-1203586
1.3743,-2.231277676605201,Na6La2Mn6As6O30,mp-1203724
3.8801,-3.285019685156251,Nd8Ge4O20,mp-1205383
2.3818,-2.58948777575,Ba2Zn1Mo1O6,mp-1206097
5.0044,-3.5074475878174485,Rb3Dy1F6,mp-1206148
0.7812000000000001,-2.2668811660841834,Tl4Cu4P12O36,mp-1208325
3.5987,-2.2084595948099026,Rb10In2Mo8O32,mp-1209387
4.9856,-3.168718239398232,Rb4Ho4P8O28,mp-1209471
4.1414,-2.586957416186207,Rb8La4Cl20,mp-1209610
4.9598,-2.9610177396632653,Na24Y8P16O64,mp-1210758
4.9411000000000005,-2.9684264448418367,Na24Dy8P16O64,mp-1211075
2.3895000000000004,-2.476140842644,Mn12Al8Ge12O48,mp-1211470
0.8836999999999993,-3.1609542938125004,La8Ta12Se8O32,mp-1211581
3.3301000000000003,-3.4016461506249995,La12Sc8Ga12O48,mp-1211869
1.1383,-2.1935351673416044,Cs4Zr24C4Cl60,mp-1213455
1.3028,-2.7135982196706507,Cs2Si4Mo6P12O50,mp-1213518
2.0876,-2.1562249713745207,Cs12Re4O20,mp-1213725
2.4241,-2.3790368992857145,Ca4Co4Ge4O16,mp-1213999
4.5536,-2.8250623456186665,Ba4As8F48,mp-1214710
6.4977,-3.744016383609425,Rb2Mg2Al2F12,mp-1219581
1.2182000000000004,-3.0532848102500014,Pr4V2Fe2O12,mp-1219885
3.6504,-3.1203878115952386,Na1Pr9Ge6O26,mp-1221029
3.0133,-2.34261409072131,Na2Co2P4H2O14,mp-1221116
5.2372,-3.860388187626897,Li2Zr10Tl2F44,mp-1222537
0.027099999999999902,-0.1828249616666666,Li4Ga14,mp-1222769
3.3715,-2.5903889040442176,K12In4P8O32,mp-1224542
2.9929,-2.431789682338236,K8Nb8As8O44,mp-1224597
3.3091,-1.7480468267356764,K3Rb5Te4H24S4O40,mp-1224636
1.4981,-3.0113546864829885,Cs2Cr2Fe2F12,mp-1225950
2.201,-2.411729850140574,Cs2Zr1Mn1Mo4O16,mp-1226199
4.9246,-2.907532162745793,Cs2Ca1P2O7,mp-1226202
0.3325,-2.2649740621446117,Cs2Co1Cu3F10,mp-1226314
0.013399999999999856,-0.8275530085294119,Ba8Li13Ga1Sb12,mp-1228109
0.9721000000000002,-2.088319590750001,Ba3Sr1Co4O12,mp-1228377
3.0541000000000005,-1.3105623024107143,Ba4Al8Se16,mp-1228740
2.2957,-2.8826215664829884,Cs2V2Ni2F12,mp-1228899
0.2375000000000007,-1.2114254142592602,Ba1Cr10S16,mp-1229162
2.0162,-1.0534660891979168,Na2Se1,mp-1266
1.5071,-1.2647028401979166,K6S6,mp-1287
1.0633999999999997,-1.7146389592500004,Zn18Te6O36,mp-13199
4.2734999999999985,-2.8663509234267237,Cs2Al2O4,mp-14069
3.9959,-0.8231871075268572,K12P24N44,mp-14565
0.012199999999999987,-0.42037073971014427,Tm6Co58Si8B20,mp-16092
3.4339999999999997,-2.6388325318510533,Rb24Si12O36,mp-16194
4.4261,-2.9188923528055555,Na8Si8O20,mp-16970
5.3085,-2.9486475283210183,Cs2Tb2P8O24,mp-17128
0.7067999999999999,-1.016278966361112,K4Ni6S8,mp-17228
1.8249,-1.1208540397968751,K12Nb4Se16,mp-17283
4.637600000000001,-3.680522307159092,Tb8Si8O28,mp-17308
2.9539999999999997,-2.502890471875,Sm2Tl2W4O16,mp-18041
3.3465000000000003,-2.0981068505312503,K4V4Te4O20,mp-18487
0.24239999999999995,-0.8763748573076919,Ca10Sn4As12,mp-18670
0.2661,-0.6231744805627394,Rb4Ni6Se8,mp-18691
0.37319999999999975,-1.122438335384616,Sr1Ni4O8,mp-18898
3.4368,-1.7244813050000007,Tl4Mo2O8,mp-18938
4.4515,-2.333855973253967,Ni4P8O24,mp-19135
1.3721,-1.3252142591666665,Cr2Hg2O8,mp-19380
2.826,-2.444316521250001,Li4V4O12,mp-19440
2.7787,-2.2597951406666668,K4V8Sb4O32,mp-19496
0.6236999999999999,-0.4578819201488094,In2Hg1Se4,mp-20731
0.7902999999999998,-0.5219220001302083,Tl2In2Se4,mp-22232
2.2836,-2.678650126958334,La1Fe3B4O12,mp-22252
1.8455,-1.3931244530949995,Sr2Br1N1,mp-23056
0.3094000000000001,-0.8412655080859377,Cu2Bi2Se2O2,mp-23116
6.3332,-1.8268510421733333,Be2Cl4,mp-23267
5.6249,-2.189040078500009,Cs4B20H32O48,mp-23742
3.6208,-0.4877082043190626,H16C4S4N8,mp-23930
2.4837,-1.3263107077315273,Co2H4Se2O10,mp-23967
7.718999999999999,-2.0185691571533333,B8H24N8F24,mp-24160
2.5006,-0.8322487467577422,Cd8Co8H144N48Cl40,mp-24430
2.7238,-1.268795660340576,Zn2H4Se4O16,mp-24547
3.3168,-2.435895578145169,Na2Mn6P6H4O24,mp-24586
2.036,-2.6435884337548248,K2V2B2P4H2O18,mp-24827
4.1534,-2.656736489367041,Li4Mn4P12O36,mp-26019
2.5589,-1.978673168872,Na6Mn1Cl8,mp-27125
4.0194,-1.922858568069854,Sb8S12O48,mp-27339
0.8658000000000001,-1.0346260209709826,Ta8P8S48,mp-27673
3.8096,-2.7009837409255555,Sb8F28,mp-28062