band_gap,formation_energy_per_atom,full_formula,task_id
3.1721,-2.6847931814388506,Rb2W1O2F4,mp-1219649
2.4342,-2.265068217936106,Rb28V4Si4O32,mp-1219828
1.9274,-2.491817302277963,Rb8Mo8P8O44,mp-1219951
0.04210000000000047,-2.059730975052084,La4Se4S4,mp-1222829
4.995399999999999,-3.2779575854265874,K1Na1Hf4P6O24,mp-1223505
1.0455,-1.885635029872308,K1Lu1Nb6Cl18,mp-1223523
2.3686,-1.1554826084642855,K4Ga4Ge4S16,mp-1223528
0.00120000000000009,-0.9637599526595836,Cu10Se2Cl10O8,mp-1225822
3.8447,-3.3125281567541367,Ca10P6S1O24,mp-1227747
3.2522,-3.4741981502499986,Ba3Ca1Ta2O9,mp-1228141
2.19,-3.51463890329427,Ba6Ta8Ti8O42,mp-1228489
2.9093,-3.5250407096590917,Sr4Ta4O14,mp-12286
2.3632000000000004,-2.7646415048611117,Ba12Pr4Fe8O30,mp-1228608
0.6337999999999999,-3.702676016291935,Ba10Nb6O6F40,mp-1228715
1.861,-2.955831928149655,Cs2V2Co2F12,mp-1228876
3.0948,-2.5647358781612346,Cs6In6P8O32,mp-1232408
4.444899999999999,-3.0686456893750003,Mg1O1,mp-1265
3.0338,-3.6371485523124982,Dy2S1O2,mp-12669
0.9187,-0.7139637783405175,Rb4Pd6Se8,mp-14340
6.1156,-2.348585793712815,Cs4C4O4F12,mp-14734
2.8662,-2.1491659196153847,Sr4Zn8As8O32,mp-15740
3.7556,-3.114741028352564,K18Tm6Si12O42,mp-16598
2.0737,-2.3841234929454043,Rb2V6O16,mp-16864
3.8159,-0.5099432020399998,Ba2N12,mp-1707
0.6958000000000002,-0.44399804291666695,Fe8Si16,mp-1714
0.4413999999999989,-0.651417893,Zr6Ni6Sb8,mp-17926
0.4614000000000002,-0.29289792979474544,Rb20Ge4P12,mp-17978
2.2954,-1.6655388241666678,Cr2Cd2O8,mp-18781
0.43400000000000016,-2.5481249672500006,Sr2Co1Mo1O6,mp-18805
1.5419,-2.7383332233459994,Nd4Mn2Ni2O12,mp-18899
3.8276,-2.4874783863061225,Na4Fe4P4O16,mp-19226
0.06050000000000023,-0.9113087725,Eu4Ge4Pt4,mp-19798
2.8636,-2.154263663750001,Mg4Pb8W4O24,mp-20216
2.6766,-2.4309447271428573,Fe8Si4O16,mp-20313
0.006199999999999761,-0.5285605279999984,Gd1Cu2Ge2,mp-20806
3.7823,-3.8834953260000007,Sm16O24,mp-218
0.004400000000000404,-0.7231051075000003,Ce2Ni2Sb4,mp-22539
0.9331000000000004,-2.017526984583333,In16O24,mp-22598
1.3813000000000004,-0.7411918229374997,Bi8S12,mp-22856
4.3706,-1.8658976899778128,Tl4Zn4S4Cl4O16,mp-23146
1.7483,-1.3615055470799995,W3Cl18,mp-23178
2.2207,-1.7239394596611108,Nb6Cl30,mp-23307
3.8981,-2.4832018055263148,Si6Bi8O24,mp-23331
1.3726,-1.4594735702883337,Sb4Cl16F4,mp-23412
0.7890999999999999,-1.725369641886667,K24Co12Cl48,mp-23515
0.4141999999999997,-0.9368026265972222,Ag8Bi4O12,mp-23558
3.4068,-1.7488767166204169,Mg2H4Se2O10,mp-23966
3.0077,-1.192790667924444,Ca8B4H4N8,mp-24266
3.6076,-1.000274263475185,Cr2H34N8Cl4O6,mp-24480
4.6708,-2.7772103921372224,K1Sb4F13,mp-27211
3.2471999999999994,-1.8912329091032607,Sb12S4O30,mp-27229
1.5527,-0.2986631599999998,Ir2Br6,mp-27397
5.322100000000002,-3.014587022072334,K24In8F48,mp-27526
2.3041,-1.005881714201177,Ni1N2F14,mp-27806
6.3438,-0.15979322002619006,B16H40,mp-27990
0.5733000000000001,-0.5275150988749999,K4Sn2Te10,mp-28080
1.7477999999999998,-0.7656344429089289,Au4S4Cl20,mp-28192
1.3087,-1.3615528286379313,Rb8Cd4O8,mp-28364
5.5541,-1.7214100191080002,Si4Cl16,mp-28391
1.0025000000000004,-0.5266584241071435,P12Ru4,mp-28400
4.1785,-2.1274067507895,K8I24F128,mp-28634
1.2743000000000002,-2.361320150666666,Sr5Au2O8,mp-28796
2.1504,-2.16136308042375,La2Au6F24,mp-28993
4.5111,-2.6458592394758336,K2Te4F18,mp-29144
4.5803,-2.5911266327675,Te4Pb4F24,mp-29178
4.1331000000000016,-3.144294243,Na4Y4O8,mp-30980
2.1979,-3.2570834216666666,Er8Mo4O24,mp-31122
0.0015000000000000568,-2.0626479965441185,Eu4Te8O22,mp-31247
1.7448,-1.8002401011138842,Cs8Cr16O52,mp-31378
5.9506999999999985,-2.8381523023437505,Ba4S4O16,mp-3164
0.03929999999999989,-1.1633571873925774,Hf23Se25,mp-32873
1.8829,-2.055792832767857,Sr2La4Se8,mp-33569
2.3390000000000004,-2.1803672744062506,Na1Er1S2,mp-3613
0.05209999999999981,-0.1381719987500003,Cd2Sn2As4,mp-3829
3.861,-2.7107586317083343,Na4Si2O6,mp-4533
3.3593,-2.4891133295833328,Sm4As8O18,mp-4794
2.4759,-2.0300103210966665,Ca4Ni4As4H4O20,mp-505457
5.6395,-2.090313242930357,Na4P8H20O32,mp-505701
3.2903,-2.2940408324264707,Nd4Te8O22,mp-5121
1.3453,-0.5037499212976192,Na6Al2P4,mp-5122
5.5183,-4.1427890160710525,Lu4Zr12F60,mp-531792
1.7864000000000002,-1.9616708984148552,Sr17Ta10S42,mp-532315
2.2696000000000005,-1.1113330430357142,Zn1Ga2S4,mp-5350
5.0074,-2.5647823307767244,Cs8Dy4Cl20,mp-540695
0.3253,-1.6768809282799997,Al4Co2Cl16,mp-540759
4.022399999999998,-2.3354772223611104,Li6Re6O24,mp-540946
0.3329,-1.0153497853571432,Ca12Ga4As12,mp-541062
0.0029000000000003467,-1.4059753132142856,Tl4Cu4As4O16,mp-541202
1.5323,-0.8758146484285716,K12Ga4Te12,mp-541688
1.0943999999999998,-1.1318498349250588,Cs2Tb4Ag6Se10,mp-542164
1.0476,-1.04807595696875,Pd2Se2O6,mp-545482
1.3836000000000004,-2.281183983125,Y1Bi2I1O4,mp-551816
2.1345,-1.2236929206808032,Tl8Se12O36,mp-553909
2.0285,-2.9569150997608045,Rb4Mn4F16,mp-553981
0.5693000000000001,-0.6772227399479172,Cd2Ag4Ge2S8,mp-554105
0.2265999999999999,-2.7991916080000006,Ba2La1Ru1O6,mp-554410
2.8511,-2.0257330543750003,V8Zn12Te4O40,mp-554700
1.7068000000000003,-0.40117167591765934,Cu4P16S12I4,mp-554724
4.6864,-2.3790445901985917,Rb4Sb4S4O16F8,mp-554732
2.9914,-3.37932752582762,Ca12Nb16O48F8,mp-554801
1.6109999999999998,-1.6620940959314283,Ba4Hg8Cl8O8,mp-555736
2.5450000000000004,-2.8428536289690483,Na8Sr4V4P8O36,mp-555920
3.5264000000000006,-2.92830572894898,Na24Ce8P16O64,mp-556334
1.5112,-1.94661331118182,Na6Sb6As4O28,mp-556577
2.5407,-2.771500496406249,Ba10Re6Br2O30,mp-556721
4.3089,-2.4365482183385723,Rb4Er4Se4Cl8O12,mp-557019
3.0241,-1.5873253435937498,Ni2Bi2As2O10,mp-557209
5.0408,-2.668526456638247,Rb2Zn2B2P4O16,mp-557658
2.7192,-2.366363719625,K4Tb4Cr8O32,mp-558923
4.0539000000000005,-2.5906473905652176,Na8Al6Ge6Br2O24,mp-559084
1.2898,-1.1183474830839288,K12Cr8P12S48,mp-559251
1.2258,-0.5568641203513538,Ag30P8S32Cl6,mp-560328
4.9412,-2.188673451030985,Cs4I4O4F16,mp-560851
1.9178,-1.1167737419062505,Na2Cd1Sn1S4,mp-561075
5.5343,-3.5958257301583334,Ta4F20,mp-561197
4.0923,-3.3665783232812494,Y8Ge4O20,mp-561441
4.4582000000000015,-3.207143948029557,Cs4Al4Si4O16,mp-561457
5.0451,-3.5331142389880963,Ba4Nd4Si8O26,mp-561462
6.8635,-3.5640611027302618,Cs8Na2Hf6H4F38,mp-562542
2.0121,-1.3235641462413796,Cs4Pb4Br12,mp-567629
0.8935000000000001,-0.9985751381818184,Ba8Fe16Br64,mp-568396
5.2045,-2.488622394647379,Cs2Na1Tb1Cl6,mp-568670
0.7845000000000013,-0.3698583892142857,Fe4P16,mp-570553
2.0906,-0.7087451470932543,Sb12P12S48,mp-572597
1.9837,-1.207038602044335,Cs3Sb2Br9,mp-579560
5.3478,-2.4910377881473798,Cs2Na1Er1Cl6,mp-580589
1.4505999999999997,-0.5129621594196426,Tl12Ag12As8S24,mp-583184
1.8306,-0.7765168815561226,Tl4Sn4P4S16,mp-6057
0.9477000000000002,-3.1141779703125017,Pr8Ta12Se8O32,mp-6105
1.8373,-2.5111887643948663,Cs2Co1F6,mp-610706
0.4965000000000002,-2.5567839847272724,Na2Sr6Ru2O12,mp-6233
2.404,-0.5044973804152374,K2Sn1H12N6,mp-643371
0.08139999999999993,-1.26185533170625,K4Ce8Cu4Se24,mp-669330
2.2625,-0.73278293449575,Te4S28Cl8,mp-672186
2.0161,-0.7954266506250001,Al4Pb2Se8,mp-675374
0.027500000000000302,-0.3293747441538463,K22In12Bi18,mp-680539
5.8459,-3.2193947358125,Lu16B48O96,mp-680724
3.1785,-1.5206418229870002,K6Ge2H4N2O6,mp-697540
4.0139,-0.297777108595665,Rb8Zn4H16,mp-697575
2.0176000000000003,-1.6900757697435904,Cr1Bi14O24,mp-698567
1.1982999999999997,-2.6365363532087507,Gd4Mn8O20,mp-703682
1.3302,-1.2899168982968756,Na4Zr2Se6,mp-7219
2.0315000000000003,-3.4562882063125016,Sc4S2O4,mp-7288
0.5885000000000002,-0.7177114052,K8Te12,mp-7289
1.5097,-1.8286613315384608,Mn4H24O12F12,mp-735521
0.5411000000000001,-0.4022454064224141,Rb8Sb8,mp-7444
1.3215,-1.1700347745754314,Rb4S6,mp-7446
4.4379,-1.8090627265554544,Li8H6Br2O6,mp-753690
4.3153,-3.367225721875,Li2Tm2O4,mp-754237
6.464599999999999,-1.8874428865211763,Si2H16N4F12,mp-759722
3.5817,-2.8047229429928566,Mg3N1F3,mp-7604
1.6876,-1.3365638605989585,Cd2Se2O8,mp-761036
1.0979,-2.34282082367524,K4Mn2P2C2O14,mp-769604
0.07870000000000044,-2.9505350513756605,Ti4V2P6O24,mp-771649
2.595,-2.6781895140657146,Li4Mn4Nb4O16,mp-771705
0.4884,-1.5194504740732764,Rb8Co4O12,mp-780880
1.2199,-2.4594927431425,K1Ru1F6,mp-8013
0.4456999999999995,-1.0770732400267855,K2Mo6S6,mp-8116
1.7400000000000002,-0.7262146998660711,Tl2P2S6,mp-8249
2.2428,-2.071384096041668,Na5Re1O6,mp-8253
5.1000999999999985,-3.0313910023038697,Rb8Na8Sn8F48,mp-8333
4.4907,-2.691503830468421,Mg4Sb8H8F56,mp-849311
2.1747,-1.3737791162500002,Dy2I6,mp-865005
0.0964999999999998,-0.8271502612499999,Ca2Bi1Au1,mp-867799
2.3503000000000003,-2.1745481608674577,Rb1Ho1S2,mp-9366
0.0354000000000001,-0.4095804585714293,Ba1B6,mp-954
2.5058,-1.4210576106091952,Cs2Rb1In1Br6,mp-996941
3.7002,-2.317241512464,Tl8Cd8F24,mp-998759
2.0818,-2.093673852448571,Cr1F6,mvc-11142
0.4096000000000002,-1.173736827476,Ca3Sb1N1,mp-1013548
2.6738,-2.441041253001428,Gd2C1N2O2,mp-1025163
1.2631,-0.334115680625,Cu2W1Se4,mp-1025340
6.672700000000002,-4.1686390540175005,Ca1Zr1F6,mp-1025456
0.9449999999999998,-0.8304829154399993,Na4V4N8,mp-1029711
1.372,-0.5800534279321953,K30Mo14N38,mp-1029869
0.5951,-0.9456389383333336,Ba1Li1As1,mp-10616
1.0116,-0.96517567321591,K2Sn1As2S6,mp-10776
0.8301000000000003,-1.0055943118821844,Rb2Ni3S4,mp-1079718
0.9901,-1.0818014083333332,Li4Yb4As4,mp-1095274
1.7494999999999998,-1.1846566166666672,As2Au2O8,mp-1095378
1.9049,-2.5993564642866667,Mn2Tl2F8,mp-1102938
1.5234,-1.4805766016147222,Cs6Fe2O5,mp-1105876
3.8484,-2.800096868955379,Cs4Sn4F12,mp-1105915
1.4190000000000005,-2.5881140418981485,Ba4In2Ga2O10,mp-1106089
5.806100000000002,-3.068136556114,K3Ga1F6,mp-1111080
5.9471,-3.1022278837640003,K2Na1Ga1F6,mp-1111106
3.4502,-2.1361769732226668,K2Lu1Ag1Cl6,mp-1111986
1.0667,-1.6710394811973797,Cs2Tl2Cl6,mp-1112176
2.3633,-1.4350313503747123,Cs2K1In1Br6,mp-1113046
2.0224999999999995,-2.9992450936140003,Na4V4F12,mp-1120756
2.8296,-1.5615704745725445,Na6P2S6O2,mp-11738
0.7227999999999994,-1.95733991525,Fe2Sn2O6,mp-1178212
0.5471999999999997,-0.019640879363333284,Na1Mg149,mp-1186271
1.6826,-1.1909107699999997,Sc2I6,mp-1186991
2.9466,-2.4296117809821443,Dy2Co1Te2S2O14,mp-1190177
0.5674999999999999,-1.8244625823250005,Cu1Sb6S2O16,mp-1190199
4.0305,-2.4520670476488102,Sm2Zn1Te2S2O14,mp-1190396
4.6677,-3.0398317825000007,Sr3Li6Si3O12,mp-1191141
1.7422999999999995,-2.5191664237500007,Ba4Tm8S16,mp-1193579
1.3869000000000002,-1.9709720409821432,Ba4Dy8Se16,mp-1193797
2.8557,-3.679295348009513,Dy12Se6O6F12,mp-1194579
3.8983,-1.7485249262824083,Rb4Fe2H24S4O28,mp-1198856
2.0694,-0.6374419633581346,P8S28,mp-1199938
2.1322,-0.4202517446202538,Rb24P24H40N8,mp-1200086
5.5608,-2.7607885444773017,P8O12F16,mp-1200699
3.7587,-3.1981832573369577,K4Na4Nd8Nb4O26,mp-1201519
1.8698,-0.033943824494611974,Rb28Na4Si32,mp-1202504
6.8373,-4.068183965367409,K18Tm18F72,mp-1202753
0.3857999999999997,-3.400927997159092,La12Mo4O28,mp-1203257
4.2949,-1.8262000212305889,Nb4H32N8O4F20,mp-1203928
0.7855000000000003,-2.499396375138889,Sr16Fe16O40,mp-1205087
0.22970000000000024,-0.673420585,Tb1Ni1Bi1,mp-1206686
2.4252,-1.7337925065429696,Tl4V4Se4O20,mp-1208048
7.0581,-3.430040823814002,K4Be4F12,mp-1211678
1.3263,-1.4844440252413786,K4Zr6Fe1Br18,mp-1211812
5.0483,-2.4768824983560003,K12Y4Cl24,mp-1211890
0.7581,-3.0674155355728394,Hf6Ag2Hg6F40,mp-1212249
1.7628,-2.821676749846,Ho4Mn2Ni2O12,mp-1212340
0.9772,-1.148553590046419,Cs2Y2Nb12Br36,mp-1213375
1.0449000000000002,-2.1874997959216,Cs4Rb4Zr24B4Cl60,mp-1213588
1.4904000000000002,-1.4876522230205569,Cs4Rb2Fe2O5,mp-1213695
1.3958,-0.5118292668549878,Cs8P12Se24,mp-1213727
3.5074000000000005,-3.031417298935185,Ba12Tm4Ga8O30,mp-1214558
2.5789999999999997,-1.2235816363462495,Ba8Ca16W8N32,mp-1214597
2.2072000000000003,-1.8959452163912498,Sr2Bi2N2O10,mp-1218578
3.4917,-3.303260227154256,Sr6Al12Bi2O27,mp-1218595
2.3209000000000004,-2.2483888538392867,Nb3Fe1Bi6O18,mp-1220715
2.7645,-2.9363638374369754,Nb3Al1P6O24,mp-1220763
4.106400000000002,-3.5688536413571432,Na4Hf4Sc4O16,mp-1220764
1.2573,-1.9242183530154549,Mn2As2O7,mp-1221906
1.5624999999999991,-2.9193640966875,La12Sb8S6O24,mp-1223262
1.9119,-1.2699864019732143,K10Zn4Sn4S17,mp-1224229
0.9775,-1.8924280706547607,Cr1Sb3Pb4O13,mp-1226278
5.6011000000000015,-2.9502459773487963,Cs6Sm6P24O72,mp-1226438
4.8892,-2.7786395446236845,Ca4As12F60,mp-1227150
3.2043000000000004,-2.8420946460526326,Ca2Y4Ge8O24,mp-1227308
3.8741,-3.5181705688729994,Ca12Al14O32F2,mp-1227337
0.5712999999999999,-1.5172670426785717,Ba4Bi2O1,mp-1228030
0.2218,-2.436299011583334,Ba6Ca2Bi4O18,mp-1228277
3.2402999999999995,-3.002491005178572,Al8Zn3Co1O16,mp-1228970
1.3641,-1.1033819235344826,Cs2Pr2Zn2Te6,mp-12341
0.6039000000000003,-0.9447654825000006,Pt2O4,mp-1285
0.0060999999999999934,-0.13074649083333334,Eu2Mg4Cu18,mp-13223
2.0995,-2.0399353469510584,Ag8Mo8P8O48,mp-14029
0.05149999999999988,-1.891831151189999,Dy1N1,mp-1410
1.4358000000000004,-0.3601820120634921,Si4P4Ru1,mp-14983
1.1762,-1.6952112117968756,Li1Gd1Se2,mp-15792
4.662000000000001,-2.50979819375,Li40Al8O32,mp-15960
2.127,-1.2624382080208332,Li6Au2S4,mp-15999
3.8553,-3.12025624054348,Sr3Ta1Ga3Si2O14,mp-16136
0.8816999999999999,-1.4977045825727373,Cs2Sm4Cu2Se8,mp-16445
1.4123,-0.8431952655627397,Rb8Cd12Se16,mp-16818
0.43820000000000014,-1.0508944814453134,Zr2Se6,mp-1683
1.9240000000000002,-2.2232870822807027,Ca2V8Ag4O24,mp-16967
0.6537000000000002,-0.4224124943743843,Cs12K6Al2Sb8,mp-17120
3.2309,-3.719089900357144,Ba4Ho8O16,mp-17363
3.8034,-2.8806209026293113,Rb4Si6Sn2O18,mp-17382
1.4588,-2.17598963884375,Na4V4As4O20,mp-17507
2.6909,-2.992700331388889,Gd8Te4O24,mp-17583
1.7221999999999995,-2.2573207541451565,Ba8Sn4Se12F8,mp-17805
3.8754,-3.4569607801388886,Ba4Nd8Be4O20,mp-17836
0.5665000000000004,-0.031432367704081594,Ag6Ge10P12,mp-17862
0.52,-2.0221814847039483,Sm4Cu2Se8O24,mp-17874
4.3865,-2.6628761800941567,K4Ga4P8O28,mp-18348
1.5716,-2.500053674452382,V4Co2P4O20,mp-18729
2.3233,-2.472434925249999,Sr2Ni1Mo1O6,mp-18940
2.5692999999999997,-2.530928771757223,Li3Mn3B3O9,mp-19131
2.3029,-2.864153006730666,Mg6Mn1O8,mp-19239
3.6886,-2.7870045949285718,Na2Ca2V2O8,mp-19302
0.0054999999999996154,-0.6142530666666666,Gd2In4Rh2,mp-20444
1.8161,-2.7516356965833344,Ti1Pb1O3,mp-20459
2.6294,-2.4375243884375,Si12Pb18O42,mp-21767
0.0009999999999994458,-0.3099781777777777,Y4Ga1Co4,mp-21875
0.008599999999999497,-0.17798313775510186,V8Ga41,mp-21965
2.5229,-2.1550483607916657,Na2Fe2W4O16,mp-22076
0.5130000000000008,-2.0019468748288887,Mn3Sb6O18,mp-22576
0.000600000000000378,-0.5855203119999999,Gd1Si2Au2,mp-22615
2.5682,-2.4857204790986405,Fe2P4Pb1O14,mp-22806
0.6034999999999999,-0.9144882942413796,Cs2V2I6,mp-22991
2.4258,-1.5114432305949994,Ca2Br1N1,mp-23009
0.2782,-0.4666462198529415,Nb24I44,mp-23226
5.1025,-1.8175541366270365,Mn2H12S8O32,mp-24071
3.2314000000000003,-0.1928954334133792,Cs2Be2H6,mp-24341
2.3494,-0.3249620262219999,K4Na2Al2H12,mp-24412
1.9087000000000005,-1.2879958209374998,Ba4Te4S12,mp-27499
1.3841,-1.4730018752700005,Na14Cd2O9,mp-27559
2.231,-2.068300404296875,Sr1Se1,mp-2758
5.638999999999999,-3.0861582004605275,Ca8B24O44,mp-27657
1.8723,-2.4312600643942863,K2Pd1F4,mp-28163
2.0644,-1.7628267717780002,Bi2Cl2F16,mp-28194
0.5903,-0.8156951244708992,Sr6In4P8,mp-28324
0.7134999999999998,-3.182376590063112,Ta2Ag1F12,mp-28375
1.4613999999999998,-1.371816773897783,Rb12Tl4O12,mp-28380
3.6931,-2.968569783329957,Rb8Fe4F20,mp-28600
1.6515999999999995,-0.6265641587377774,Na12B4N8,mp-28630
0.0141,-0.2672787832413789,Cs1Fe2As2,mp-28884
2.9784,-1.5736292951,Na4Sn8Cl20,mp-28947
1.7550999999999997,-1.6921787818750005,La20C8Br36,mp-29070
1.0159,-0.4896421434099619,Rb8Hg12Te16,mp-29107
1.4659000000000002,-0.17862624453125045,Ge8As8Se8,mp-29249
0.8513,-0.3825201518241996,Rb48Ga16P32,mp-29363
1.0309,-0.3925047148879312,Rb16Ga8Sb16,mp-29371
1.8022,-0.6975251776631946,K8Ge8Se20,mp-29388
1.4556999999999998,-1.6586922122999999,Na8Zn4O8,mp-29488
4.4707,-1.5112251033333333,Mg1Br2,mp-30034
4.3612,-1.8788734726733336,K4Ga4Cl16,mp-30219
3.8842,-1.8734231738362064,Rb4As4O8,mp-30299
0.8899999999999997,-1.5869815923863642,Bi8O14,mp-30303
2.0871000000000004,-0.6059725635848217,Mg2P2Se6,mp-30943
5.6619,-0.3783519866811765,B12H20N2,mp-31064
1.7964000000000002,-3.5323799722058813,Sr4Ti3O10,mp-31213
2.9311,-2.589341636893939,Ba9Sb6O18,mp-31238
3.0573,-2.2048985529166667,La1Sb5O12,mp-31419
1.0322,-3.0672737613888903,Ta4Cr2O12,mp-31629
2.6125,-1.6802302509848488,Hg6B4O12,mp-4710
0.6013000000000002,-2.494622143250001,Pr4Rh4O12,mp-4789
0.029700000000000063,-0.1323794512499994,Ge2Mo6,mp-494
3.3932,-2.3184438976042183,P6Pb10Cl2O24,mp-504748
3.0294,-2.1652202535294123,Ga10Ge1Pb3O20,mp-504827
3.4944,-1.8895416269907408,Ga4Ni8B4O20,mp-505076
0.5808,-0.462025391888889,K8Na4In4Sb8,mp-505767
2.4274,-1.5761498184314289,Pb12Cl8O8,mp-510030
6.8711,-3.3431255047514283,K8Be4F16,mp-5185
1.4810999999999996,-3.489663402584167,La2S2F2,mp-5394
4.5412,-2.0312938436362558,Cs8Zn4Cl16,mp-540578
4.5241,-3.1144631759523818,Ba6B12O24,mp-540659
1.5222,-2.2412638968278156,Cs2Cu2F8,mp-540921
1.7102,-1.502487004761667,Sb2Br10F12,mp-541259
1.0437,-1.7929884105686205,Cs6Mo4Cl18,mp-541742
0.5309999999999997,-0.31378074857142835,Bi8Ru2Br4,mp-541772
2.5525,-0.635898548514031,P8S20,mp-541788
3.9628,-1.799561522111872,Rb8H12C4O18,mp-542063
1.4712,-0.2748042666810342,Rb12As44,mp-542233
2.5817,-0.8386817007259999,Hg8N8O24,mp-542289
1.7331,-2.8447510407500003,Ba2Dy1Bi1O6,mp-545659
2.8285,-2.169475927500001,V2Bi2O8,mp-545850
1.2363,-2.2703531615625003,La1Bi2I1O4,mp-546672
2.7137,-3.96050992420712,Y8Ti2Si4O18F12,mp-554376
2.3385,-1.8937697218387504,Mn2Bi2As2O10,mp-554839
2.6478,-1.6009322087707694,Te4Pb6Cl4O12,mp-554952
0.28469999999999995,-3.256513069276543,Zr6Cd6Ag2F40,mp-555315
4.8994,-3.421688447541209,Hf4P4O18,mp-555344
7.282,-4.319960170874632,Rb4Er12F40,mp-555932
1.7892,-1.4667001988642243,Cs5Nb2S4Br9,mp-556239
4.6928,-2.5026081141162995,Rb6Ni6F18,mp-556488
4.5494,-2.9665596546527784,Li6Sc2B4O12,mp-557012
2.983,-2.8787269550000008,Ba8Nb8Te4O40,mp-557108
3.6543,-1.6260229528462506,Zn16Te8Cl16O24,mp-557130
1.3980000000000001,-0.8416105229630002,K8Ru4I20N4O4,mp-557702
4.6976,-3.121220292558823,K8Be4Si16O40,mp-557802
2.0496,-1.8602398608925,Ni1Pt1F6,mp-558838
3.1031000000000004,-2.0036052311574077,Hf4Ni20B8O40,mp-558963
2.2668,-2.4976432407725557,Na4Mo8P12O52,mp-559036
2.1284,-0.7697903637686014,Tl8Bi4P8S28,mp-559093
2.2126,-1.852047213884616,K6Na4Li2Te2O12,mp-559875
1.5561,-1.791619919031719,Au4S12O36F12,mp-560021
1.222,-1.347020887765254,K2Ti2P2S10,mp-560977
3.1101,-2.425263529843749,Mg4V4Bi4O20,mp-561538
2.1388,-1.004165230962644,Cs4Sn2Au4S8,mp-561641
5.9404,-2.85022602079844,Rb8B40O64,mp-561814
2.6009,-1.77226240087625,Ca4Co8Te12Cl8O32,mp-562004
0.7994000000000001,-1.6008850260937495,Dy20C8Br36,mp-567407
3.4391,-1.4182916402525,Ca16Si16N32,mp-568965
1.8643000000000003,-0.5969406072045454,Na32Si16Te40,mp-569337
2.0525,-1.7353411792966666,K8Cu4Cl12,mp-569952
4.814400000000001,-2.5377654771625,K8Pr4Cl20,mp-569967
1.2214,-0.212878976597222,Hg6As2Se8I2,mp-570084
1.2345999999999997,-1.3765097905468755,Er1Tl1Se2,mp-570117
4.6201,-2.742989501827816,Cs2As2F8,mp-5707
1.1371000000000002,-0.3044343307596984,Cs32Sn32,mp-571056
1.2363000000000004,-3.381207912584168,Nd2S2F2,mp-5760
3.2839,-2.405108682416785,Cr4P12H8O40,mp-605503
0.1858,-2.86998589425,Sr4Tb2Ru2O12,mp-6068
1.8372,-0.8416507989512502,Bi4Se4Cl4,mp-610491
2.7049000000000003,-1.781902797916666,Re4Hg4O16,mp-616597
0.9373999999999998,-1.978311102241379,Cs4Eu4Br12,mp-638685
2.3441,-0.7689891981057144,Sr4H16N8,mp-643905
4.0056,-1.9963595191132848,K2Ni2P2H4O10,mp-644129
1.0952,-1.6624694843709975,Cs2K2Pt12S12O56,mp-645189
3.386,-2.6343322660937503,Li4Nb4Ge4O20,mp-6456
5.2202,-0.989010460144762,Hf2Cl8O32,mp-650960
3.8885,-2.535603204663265,K24Zn24P24O96,mp-653973
1.0114999999999998,-0.08761247673214285,Cu12P60I8,mp-679930
0.010600000000000165,-0.4129142507971017,Gd6Co58Si8B20,mp-680293
3.1419,-3.0774018557884615,K18Gd6Si12O42,mp-680437
2.0245,-3.350088270948174,Cs2Ti2Mn2O2F10,mp-684782
1.464,-1.0500339407876191,Ag4H4I2O2F2,mp-690687
1.8036,-0.3635695768848216,K2Sb2P4Se12,mp-7123