band_gap,formation_energy_per_atom,full_formula,task_id
5.292800000000001,-2.1685671498972368,Pr2H6S6O24,mp-1220028
4.472300000000001,-1.2738057231915,Pr2H36Br6O36,mp-1220119
0.0,-0.7285853614999993,Nd1Ga3Pt1,mp-1220160
0.0,-0.016005056874999646,Ni16Bi16,mp-1220533
0.0,-0.08756256730392205,Nd4Dy4Fe56B4,mp-1220576
2.264,-1.5953047414500006,Na1Bi3Br2O4,mp-1220821
0.0,-2.2877707950272126,Na1P4Ru2O14,mp-1220996
0.0,-0.8090340541250001,Na1V2Se4,mp-1221454
0.0,-0.24280026437500002,Mn2Ga1Co4Ge1,mp-1222096
0.0,-0.13895264577777766,Mg4Al1B10,mp-1222150
3.4577,-2.4719994655555553,Li1Mg4Al1Mo6O24,mp-1222638
0.18299999999999983,-0.7831195133571427,La1Zn1Cu1P2,mp-1222744
0.0,-0.4413150058333339,La2Al2Zn2,mp-1222935
0.0,-0.4886650574999997,La2Ga5Cu3,mp-1223339
0.0,-3.1133862777833334,K1Ba2Nb3O9,mp-1223493
0.0,-0.8080432843749996,Hf1Ta1C2,mp-1224285
0.0,-0.8492486400000004,Ce1Si1Ge1Pd2,mp-1226545
0.0,-0.4829169499999999,Ce2Ga3Cu1,mp-1226999
4.792599999999999,-3.4079417605892863,Ca20Si4P8O48,mp-1227400
1.7806999999999995,-1.4965884765,Bi1Pb1Br1O2,mp-1227444
0.0,-1.2082843142795565,Cs4Cr8S16,mp-1238823
1.7913000000000001,-1.1072151868678162,Cs2Pr2Cd2Te6,mp-12494
0.0,-0.8085053283333329,Sr2Cu2As2,mp-12557
0.005599999999999383,-0.6072274491666665,Mg4Pd8,mp-12741
0.0,-0.7733207190000002,Sm4Cd2Pd4,mp-12975
0.0,-1.0876631341666656,La3Sn3Pt3,mp-13250
0.0,-0.8686589498411109,Ag2F1,mp-1391
2.112,-2.318870821412906,Ag4Mo8P12O52,mp-14973
0.48819999999999997,-0.40064961415625006,Cr4Sb4Se12,mp-15236
0.6244000000000001,-0.9662739435714285,Sr6As8,mp-15339
0.4799,-0.818134632796875,Na4Se4,mp-15668
0.0,-0.49552781666666706,Tm2Ni4,mp-1576
0.0,-0.0658905836111116,Ag8Te4,mp-1592
0.0,-0.6169516488571432,Hf1Cu2P2,mp-15986
0.0,-0.3150989945918375,P4Pd24,mp-1618
0.0,-0.3309777257142856,Al12Ru2,mp-16529
0.27209999999999956,-0.8461019620000002,Ba16Sb24,mp-16922
2.9894999999999996,-3.127369286810345,Ba6Lu2W3O18,mp-16928
0.0,-0.4641307431249997,Hf20Sb12,mp-17466
6.050800000000001,-4.2513970773144445,Sm4Zr4F28,mp-18506
0.14480000000000004,-1.3347604113091667,Ag6F18,mp-18536
0.0,-0.6739746112121213,Sc10In8Rh4,mp-18645
3.069,-2.7835587014123386,Ba2Co2P4O14,mp-19278
1.7735999999999996,-1.7462460049999997,Sr1Te1,mp-1958
0.0,-0.6817172288888886,Gd3In3Ir3,mp-19745
0.0,-1.4724424075,Lu1As1,mp-2017
0.0,-0.9154154520833337,Sc1In1Pt2,mp-20521
0.0,-0.47849171611111135,Li3Ca3Pb3,mp-20998
0.0,-0.5695719097500003,Y3Pb1C1,mp-21017
4.2808,-2.5689971303199397,B3P3Pb3O15,mp-21266
0.0,-0.5100307145000003,Hf10Ga20Co10,mp-21660
0.0,-0.39298026342105247,Ce2Ni24B12,mp-21695
0.0,-0.3203310137037042,Ba8Ge40Au6,mp-21839
0.0,-0.04082640999999976,Lu1Mg1,mp-2195
0.0,-1.0128826358645842,K2Fe4S6,mp-22035
1.0474999999999999,-1.8067794735416662,Li4Pb2O6,mp-22450
0.0,-0.6221123712500001,Tb2Cu2Sb4,mp-22485
0.0,-0.3437104500000001,Ho1Zn1,mp-2249
0.0,-0.34573126866666615,Eu1Si2Ag2,mp-22653
3.8455000000000004,-1.0652056248500004,K1Br1O3,mp-22958
0.0,-1.3988821775747122,Cs2Ti2Br6,mp-22962
2.6417,-1.700130696197379,Cs1Ge1Cl3,mp-22988
3.1435000000000004,-1.2179449229050001,Sc4H12Br12N4,mp-24215
0.0,-0.7847391890799997,Tb1H2,mp-24724
0.0,-0.1034288662499998,Sm1Mg1,mp-2558
0.0,-0.32750676125,La1Zn1,mp-2615
0.0,-0.1590495624999999,Co2Sb2,mp-2644
0.0,-0.11113738528571489,P6Au4,mp-27258
0.0,-0.3296128245454542,Al8Mo3,mp-2733
0.2976000000000001,-1.9577267714285713,La4Br10,mp-28571
1.8840999999999999,-2.4771443326086957,Ba36Au8O48,mp-28788
0.0,-1.2159051017647062,Y6Ru1I10,mp-28862
0.0,-0.029839787555554647,K2C16,mp-28930
4.872999999999999,-2.9280121213,Ba2Te4F20,mp-29177
2.5853,-3.547326955833333,Ba8Ti26O60,mp-29298
1.7080999999999997,-0.41405925499999974,Ga1Cu1I4,mp-29403
1.9126999999999998,-1.3098318908925002,Au2Br2F12,mp-30159
0.0,-1.0625434096031758,Ti54P27,mp-30218
0.0,-0.4990953400000002,La4Fe4I2,mp-30223
0.0,-0.7242925650000007,Ho2Au6,mp-30386
0.0,-0.24892185578947365,Sm2Zn17,mp-30712
0.0,-0.5320983393750005,Ho10Pb6,mp-30730
1.8767000000000003,-1.2319506596180558,S2I4O12,mp-30984
0.0,-0.11696326634615363,Al45Cr7,mp-31019
0.0,-1.196275778142666,Sc3In1N1,mp-31055
0.0,-0.2753197458333334,Li2In1Ir1,mp-31443
0.0,-0.4236172279999998,Ce1Al2Ga2,mp-3303
2.4555,-1.3990019119700001,K1N1O2,mp-34857
0.0,-1.417279981536459,Ti4C2S2,mp-3732
0.0,-0.10115857652173857,Mg6Al36Cr4,mp-3778
0.0,-0.8627405344444435,Hf1Nb1B4,mp-38818
0.0,-0.5939690067499995,Sc3Al1C1,mp-4079
0.0,-1.130200328750001,Zn2Cr4S8,mp-4194
0.0,-0.2516641275000005,Al28Fe4Cu8,mp-4689
5.8067,-2.8041645933035717,Si4P8O28,mp-4769
0.0,-0.6757426289999998,Er1Ni2Ge2,mp-4865
0.0,-2.3667943184999998,Eu6Sb10O24,mp-505043
0.0,-0.9094774349999994,Ce4Ge4Rh4,mp-505282
1.5807000000000002,-1.5839565139007903,Co8Hg8H8S8O44,mp-510344
2.7935999999999996,-2.574919093457351,Rb4Sr2V8O24,mp-510558
0.0,-0.6478716627800001,La4Ni4Sn4H4,mp-510577
0.0,-0.40789313888888873,Dy2Ag2Pb2,mp-510687
0.0,-0.13532905075757595,Tl8Ag36Te22,mp-531980
3.2395,-2.0877495153999996,Na8Li12Ga4O16,mp-540945
1.9401000000000002,-1.5518722344406817,Rb8Hf6S28,mp-542012
0.0,-0.8411136766666658,Sc12Si16Ni8,mp-542486
0.0,-0.8947221653571437,Pr6Sb10Pd12,mp-542566
3.5826,-3.577942507916666,La2Nb2O8,mp-542724
0.0,-0.20671397931034338,Co21B6Mo2,mp-542728
0.0,-0.807681367777779,Zr10Si2Sb6,mp-542816
3.5327,-3.5004556039979993,Ca14Nb2Si8O34F2,mp-542863
1.5104000000000002,-1.3133680690576925,Fe1H12Pt1Cl6O6,mp-542912
0.0,-0.35571499441406296,Dy12Mn5C15,mp-543017
1.904,-2.532536703250556,Sr2Fe2S2O1F2,mp-549237
2.3072999999999997,-2.28606906625,Ba2Cu1Br1O2,mp-552934
2.0020000000000002,-1.8273511642708329,Tc8Bi24O64,mp-554435
2.6290999999999998,-1.3286094250657472,K4Sm4P8S28,mp-554581
5.599600000000001,-3.1398449178030305,Ba2Be4B4O12,mp-555070
5.1719,-3.039779135515556,K4Na4Sn4F24,mp-555076
0.0,-1.5361617716321843,Rb8Na8Ir4O16,mp-555091
5.424600000000001,-3.5274339146624993,Sr8Al4C4O12F20,mp-555467
4.8824000000000005,-2.9540697499196433,K8Ca4P8O28,mp-555914
3.7910999999999997,-2.2285910275503573,Fe8P4Cl4O16,mp-556581
4.7648,-3.312489274545456,Y4Si2C2O14,mp-556661
1.7774,-1.6425848514999999,K4Na4Zn4O8,mp-557183
3.2592999999999996,-2.4687921093269236,La4Sb4Mo8O36,mp-558000
5.4542,-2.4286443955565717,P8Cl8O8F16,mp-558681
5.6189,-4.4052149235949996,Er12O8F20,mp-560114
3.4858,-2.679739021428571,Li2Mg2V2O8,mp-560157
0.46050000000000013,-0.5660638362499997,Nb12Te32I28O4,mp-560687
1.3206000000000002,-1.0687553544834185,Nb4Tl2P2S20,mp-560847
4.221900000000001,-3.0223348072329648,Rb2Na1Mo1F6,mp-560963
1.6665999999999999,-2.94706253866,Na6Mn2F12,mp-561200
2.5247,-1.8481508733116325,Ba14B8S26,mp-562764
0.0,-0.42868546116666695,Sm1Si2Ag2,mp-567600
1.7770000000000001,-0.38980630440872943,K4Na2B2P4,mp-567836
0.0,-0.7448692340624996,Sm6Ge10,mp-569320
0.0,-0.9893597723571418,Nd1Ni2P2,mp-569974
0.0,-0.4598270645833331,Nb8C4,mp-569989
0.0,-1.2195826441935482,La12Fe2I17,mp-570039
1.4556,-0.245141824084822,Sn4P4Se12,mp-570370
0.0,-0.3927989174999998,Zr4Os8,mp-570684
4.0291999999999994,-2.1549734434866665,Y3Al9Cl36,mp-570857
0.0,-0.7627671419999998,Hf1Si2Ni2,mp-571147
0.0,-0.9058837224999997,La6Si2Pd10,mp-571217
0.0,-0.21527222581521738,Sm6Mg26Zn60,mp-571469
0.0,-0.7435286992857141,Sm8Sn6,mp-571474
0.0,-0.24823099833333254,Ta4Co2,mp-574
0.0,-0.10708343749999916,Cu3Pd1,mp-580357
0.0,-0.6889281168750001,Er4Ni4Ge8,mp-582572
0.9180000000000001,-1.5465686762305266,Na12W12Cl52,mp-583762
0.0,-0.2064552733333341,Mn1Ni1Sb1,mp-600124
3.1395,-2.867235789513388,Cs8Fe6F20,mp-616023
0.0,-2.493857263958334,Nd8Os8O32,mp-621994
0.0,-0.5908090653333332,Y4B16,mp-637
0.6237000000000001,-2.2531766803689233,Cs4Cu6P8O28,mp-638252
0.0,-0.8043367837500002,Ce4Ga4Pd8,mp-639863
0.36370000000000013,-0.4996211251723078,Ba10Ga12H4,mp-643683
0.06690000000000018,-0.40578294587499997,Na18As6,mp-655
0.0,-0.42990500666666653,Sr8In8,mp-655461
4.495900000000001,-3.4221198496875007,Sr4Mg2Si4O14,mp-6564
0.0,-0.42356939916666764,Nb6Pd18,mp-669692
7.6480999999999995,-2.353538641781851,B2H6O2F8,mp-696379
5.637,-2.609429304516391,Ca2P8H4O24,mp-697657
1.2502999999999997,-0.9725790046112014,K1Cr1P2S7,mp-7147
3.3701000000000003,-1.557791432440687,K4Te2H12Se2O20,mp-723043
4.9055,-1.9428029074316673,Na10H6C8O24,mp-730460
0.0,-0.48031161700000025,Ca1Si2Au2,mp-7364
2.3038,-3.551315424326923,La2Ta6O18,mp-757365
0.0,-2.6006539500465125,K4Nb15O24,mp-757862
0.0,-2.0793431706730767,Tl1W3O9,mp-766046
2.5936,-2.2299782156958132,Cs12Ho4O12,mp-768211
1.7026999999999999,-2.7900196200711114,K2Re1F6,mp-7824
0.0,-0.8942653850000006,Dy1Pd3,mp-797
3.4455999999999998,-2.9106604688362068,Rb1Nd1O2,mp-7973
0.0,-0.4440752931250005,As12Rh4,mp-8182
0.0,-0.5003971366666669,Tm2Al4,mp-858
0.0,-0.19965021083333312,Ti2Mn1Be1,mp-861958
0.0,-0.1153990949999999,Cu2Pd1Au1,mp-862256
0.0,-0.2945302793750004,Pm1Al1Cu2,mp-862838
0.0,-0.7504102127083332,Pm1In1Pd2,mp-862924
0.0,-0.6951795556249993,Pm1Sn1Au2,mp-862956
0.0,-0.6910356550000003,Be2Pd1Pt1,mp-864961
0.0,-0.2269660136249998,Na1Dy1Tl2,mp-865114
0.0,-0.5766809700000008,Be2Ni1Ir1,mp-865229
0.0,-0.44033063375000037,Lu1Sn1Ru2,mp-865379
0.0,-0.4343352099999995,Lu2Cu1Ru1,mp-865595
0.0,-0.6450955358333328,Ti2Tc1Ru1,mp-865650
0.0,-0.6652760999999998,Yb2Hg1Pb1,mp-865908
0.0,-0.7774747424999999,Tb1Mg1Au2,mp-866068
0.0,-0.3222406541666665,Lu2Tl1Ag1,mp-866131
0.0,-0.31648697770833323,Li2Nd1In1,mp-866181
0.0,-0.7070754949999998,Er2Pd1Ru1,mp-866281
0.0,-0.0769050062500014,Tc2Os6,mp-867212
0.9609000000000001,-0.742780197137931,Rb4Mn2Te4,mp-8720
3.2504,-2.240967946160509,Cs2Na4B2O6,mp-8871
0.10029999999999983,-0.47077347200000014,Yb1Cd2Sb2,mp-9257
0.4532000000000007,-0.46426164111111135,Zr1In1Au1,mp-961693
0.0,-0.25579443874999974,Mg1Sc1Cd2,mp-977556
0.9923000000000001,-1.147294149175,K2Br1Cl6F1,mp-989591
0.0,-0.994568133125,Co2Au2O4,mp-997158
0.0,-1.624176247307692,Ca1Co4O8,mvc-11660
2.7898999999999994,-3.5768689561538474,Ca2Ti3O8,mvc-2955
0.0,-1.9124508480272004,K2Mn16O32,mp-1016153
0.0,-2.5637339234999996,Na4Eu4Ge4O16,mp-1019727
5.253500000000001,-2.1332408069604885,Rb4Si2S12O42,mp-1020711
0.0,-0.9596434575000004,Hf4Si4Pd4,mp-10457
0.0,-0.7088893220000003,Sc4Al2Si4,mp-10676
0.0,-0.5107977750000003,Ba1Ge3Pd1,mp-1068447
0.0,-1.4973950864166654,Eu3In1O1,mp-1069296
0.0,-0.5437582239999997,Tb2Al1Ni2,mp-1069297
0.0,-0.8004517564999987,Nd1Si3Rh1,mp-1070321
0.0,-0.5437001787499997,La1Si1Ni4,mp-1071627
0.0,-0.9102798638888893,Y3Sn3Rh3,mp-1078827
0.0,-0.6343358639999999,Sr2Al4Au4,mp-1079278
0.0,-1.2679995687500005,Tb4Pt4,mp-1079305
0.0,-0.2820151113888889,La3Mg3Ag3,mp-1079843
0.0,-0.4699790070000006,Ba2Cu4Sb4,mp-1080702
0.0,-3.386933300320556,Eu3S2F4,mp-1080739
0.0,-0.3755811898699566,Rb16Re16N32,mp-1080850
0.0,-0.2967303528645833,Ni4Sb4Se4,mp-10847
0.0,-0.7148513277777779,Zr10Zn2Sb6,mp-10870
0.0,-0.8237474144444453,Y3In3Pd3,mp-1087485
0.0,-0.7128872822222223,Yb3Pd3Pb3,mp-1087494
0.0,-0.7727008800000007,Al3Pd2,mp-10901
0.0,-0.7279535149999994,Sc4Co4Ge4,mp-1095261
0.0,-0.7434837740909098,Ho1Ge4Rh6,mp-1095528
0.0,-0.7380573366666668,La4Al4Au4,mp-1101778
0.0,-0.8874903866666664,Er4Ga4Ir4,mp-1102196
0.0,-2.456331758619792,Ho5S7,mp-1102510
0.0,-0.40224811666666643,Ca8Hg4,mp-1103139
0.0,-0.5122223515934059,Eu2Cu6P5,mp-1103514
0.0,-1.0344475562244904,Eu6P8,mp-1105092
0.0,-0.501466915,Zr8Nb2Ga6,mp-1105702
0.0,-0.563032763749999,Tb12Ir4,mp-1106276
0.0,-0.35913874316666633,Na4Sn4Au4,mp-11253
0.0,-0.10693582375000066,Zr1Cd3,mp-11313
4.2264,-1.3214856352559783,Ni2H20Se4O20,mp-1181715
0.0,-0.43136594916666704,Dy1Tm1In2,mp-1184137
0.0,-0.323668714583333,Er1Mg1Ag2,mp-1184233
0.0,-0.7171102349999998,Mg1Ga1Pt2,mp-1185861
0.0,-1.0712403412500002,Mg1Sc1Pt2,mp-1185958
0.0,-0.3099517462499999,Mg1Sc1Zn2,mp-1185961
0.0,-0.004811558375000136,Na3Pd1,mp-1186074
0.0,-0.4269942737500001,Pm2Tl1Hg1,mp-1186478
0.0,-0.18249736187499987,Pm6Al2,mp-1186496
0.0,-0.24464799812500093,Pm1Ho1Ru2,mp-1186586
0.0,-0.038685189999998926,V3Cr1,mp-1187695
0.0,-0.6944005743749999,Ho10Bi2Au4,mp-1188851
0.0,-0.4703267677777758,Hf10Ga2Sn6,mp-1189978
1.9051999999999998,-1.7247583530525077,Cs8Fe4O10,mp-1191216
0.0,-0.43305742090909144,Eu2Ge14Ir6,mp-1191379
1.5457999999999998,-1.3989758686647737,Er4Tl2Cu6S10,mp-1192137
0.0,-0.08583150769230759,Zn22Co4,mp-1192361
0.0,-0.5649371399828554,Ta16Fe8N4,mp-1193073
0.0,-0.2857322525,Ba4Hg24,mp-1193593
0.45829999999999993,-2.1616565056999995,Mn10V2O16,mp-1193782
4.786,-3.6664410555092597,Ba2Ho8Si10O34,mp-1195686
0.0,-0.829038672222222,Li4Ho16Ge16,mp-1195831
2.2880000000000003,-3.8355129960285717,Li8Ce8F40,mp-1195868
0.0,-0.4792051264999998,Nd8Sn24Ru8,mp-1198161
0.3195000000000001,-0.43943294402129807,Cs72Nb16As48,mp-1198953
1.1924000000000001,-1.8441584223026328,Gd16Si12S48,mp-1199792
3.7161,-2.6122212819404114,Rb12Cd4B20O40,mp-1200569
0.0,-0.3952647911363625,Ce8Re13B12,mp-1202101
1.1162000000000005,-0.9568950638888888,Ca6Al4As8,mp-1205338
0.0,-0.48223189324999965,Nd2Si2Os4C2,mp-1205578
0.0,-0.8199431950000005,Er4Cd2Pd4,mp-1205644
0.0,-0.7581234496666667,Pr4In2Au4,mp-1205890
0.0,-0.7318826469999997,Sm4Cd2Au4,mp-1205933
0.0,-0.3620291549999995,Dy1Cu4Pd1,mp-1206430
0.0,-0.7045687929999993,Pr4Cd2Au4,mp-1206565
0.0,-0.17190910749999944,Zn1Ir1,mp-1206819
0.0,-0.3699030739999998,Ba1Al2Ga2,mp-1207061
0.0,-0.8083429666666669,Yb4Si4Pd4,mp-1207493
0.0,-0.43025735454954955,Zn22B16Rh36,mp-1207530
0.0,-0.6744421649999998,Tm8B24Rh4,mp-1208020
0.0,-0.42541692962962924,Ta10Ga6B2,mp-1208348
0.0,-0.34188583484276724,Tb12Ti8Al86,mp-1208501
0.0,-0.6953250784374996,Sm6Ga4Sn6,mp-1208826
0.0,-0.855979477499999,Sm4Al18Ir6,mp-1208899
0.0,-0.6488696790789479,Sm6Al24Ru8,mp-1208914
0.0,-0.1881447957894738,Sc4Be34,mp-1209010
0.0,-0.10891787348125966,Rb6Na4Tl13,mp-1209306
3.6192,-2.622910834820402,Rb4Ho4Mo8O32,mp-1209629
0.9685999999999999,-2.9173819280433335,Na1Sm1Cu2F8,mp-1209940
0.0,-0.49134745833333326,Lu4Zn4Sn4,mp-1210661
0.0,-0.8124460803571429,Lu4Al18Rh6,mp-1210912
3.0195,-1.4745606579375001,K8Nd4I20,mp-1211886
0.0,-0.5904409649999999,Ho6Al24Os8,mp-1212256
0.0,-0.4860055103448276,Hf6Be15Pd8,mp-1212443
0.0,-0.3025064191666671,Er12Co5Bi1,mp-1212883
0.0,-0.5715796625757577,Er7Ag2Te2,mp-1213175
0.3123,-1.8573544053224211,Cu2Ag4P4O14,mp-1213198
0.0,-0.7267922507142848,Ce12Ga8Rh8,mp-1213977
0.0,-0.3597461984615381,Y1Al6Cu6,mp-1216210
0.0,-0.2247487937499999,V9Ga4Fe3,mp-1216513
0.0,-0.22468134095238126,Tm12Co9,mp-1217007
0.0,-1.3920062292261912,Ti6P2O1,mp-1217052
0.0,-0.4608850016071427,Sr1Sm1B12,mp-1217758
0.0,-0.42072144333333483,Si4Mo1W1,mp-1219237
0.0,-0.402631668015873,Ni6Ge2P1,mp-1219800
0.0,-1.2394701025573331,Nb4H3S8,mp-1220559
0.0,-0.14986754833333413,Nb4Fe2Co6,mp-1220766
0.0,-0.36125486541666696,La1Zn3Ni2,mp-1222765
0.0,-0.32143162291666744,La1Ni4Rh1,mp-1222858
2.9250999999999996,-1.6715826374999996,Sn4Te12O32,mp-12231
0.01639999999999997,-2.916717219349026,K4Nb12P12O60,mp-1223540
0.0,-0.3360404199999998,Hf1Zn2Ga1,mp-1224173
0.0,-1.1123619762500008,Dy4Pd2Pt2,mp-1225328
0.41520000000000024,-0.9329400119014197,Cu2Ag5Se4N1O15,mp-1225986
0.0,-0.8229346144642865,Co5Ni1S8,mp-1226019
0.0,-0.29023520943452347,Co8Cu6Ni4Se24,mp-1226198
0.0,-0.4742226083333338,Ce1Ga1Ni4,mp-1226588
0.0,-2.4882435822353566,Ce2Mn1Se2O2,mp-1226784
0.0,-0.1289138923958335,Cd3In1Au12,mp-1226957
0.0,-0.33720417900000044,Ca1Mn1Fe1Ge2,mp-1227251
0.0,-0.722394646666667,Zr6Sb2Pt1,mp-12972
0.0,-0.16078249999999983,Ge8Mo4,mp-13688
0.0,-0.13595210500000032,Al2V6,mp-1387
0.9449000000000001,-0.8615894344090911,Na6Ca6Al2As8,mp-15572
0.0,-0.36832261699999974,Sb4Pt6,mp-15659
0.18990000000000018,-0.4366958997323997,Cs2Ag6Se4,mp-16234
0.0,-0.8626888700000007,Al8Pt16,mp-16960
3.2395999999999994,-1.838788606821429,K12Sb4O12,mp-17250
0.0,-0.44324101999999943,Sb2Pd2,mp-1769
0.8030000000000004,-3.2262957882812495,Sm8Re4O20,mp-17741
0.0,-3.0966822380681838,Nd6Ru2O14,mp-17753
1.5002999999999997,-1.0017506832169127,Ta4Tl8S22,mp-18344
4.3731,-3.029163320510417,K4Si12Ge2O30,mp-18460
2.1574999999999998,-1.46655086014881,Ho8P8S32,mp-18532
3.487,-3.2114198970252636,Rb4Ti2Si12O30,mp-18582
1.9393000000000002,-1.4628451724999998,Cr2Ni2O8,mp-18726
0.0,-2.2584728652500003,Ba1Fe1O3,mp-19035
0.0,-1.057602253749999,Er1Pt3,mp-1913
3.1113999999999997,-2.911109655931373,La4Co4B20O40,mp-19475
3.9476000000000004,-2.3980602362500005,Na10Y2Mo8O32,mp-19497
0.0,-0.614575026666667,Ce3In3Au3,mp-19718
0.0,-0.5398789997500003,Dy3Pb1C1,mp-19818
0.0,-0.8134481949999994,Lu4Ni4Ge4,mp-19922
0.28329999999999966,-0.26775610333333333,Fe2As4,mp-2008
0.0,-0.7534401225000001,Ce4Co2Si6,mp-20355
0.0,-0.7281816441666665,Si4Rh8,mp-20418
0.0,-0.3493154825000002,Yb1In3,mp-20469
0.0,-0.9979788474999994,Lu4Ge4Rh4,mp-20610
0.11750000000000016,-2.92360930425,Sr4Lu2Ru2O12,mp-20687
0.0035999999999996035,-0.48113360599999877,Gd1Mn2Ge2,mp-20837
0.0,-0.5722401008333331,Li2In1Pt1,mp-21026
0.0,-0.28194353638095243,K2In4Au8,mp-21134
0.0,-0.8132396991666665,Tm4Ni4Ge4,mp-21157
0.0,-0.33216388277777753,Ho1Ag2,mp-2120
3.2815999999999996,-3.228844383750001,Li4Gd4O8,mp-21332
0.0,-0.5165554314285714,Ce1B6,mp-21343
3.5549,-3.0592003405681836,La8Ge8O28,mp-21532
0.024699999999999278,-0.2636054302298854,In2Ni21B6,mp-21551
0.0,-0.44975014200000063,Ce1Fe2Ge2,mp-21882
0.43100000000000005,-0.5682944842968753,Pb1Se1,mp-2201
0.006400000000000183,-0.9412024111111114,Gd3Mg3Pt3,mp-22028
3.7631000000000006,-2.3254623477417584,Na6Fe2P2C2O14,mp-22135
0.0,-0.5045609163888892,La2In4,mp-22282
0.0,-1.097565901,Ce2Si4Pt4,mp-22438
2.9717000000000002,-2.237119603055556,V2In2O8,mp-22443
0.0,-1.009951457321429,Cr4Cu2S8,mp-22803
0.0,-0.28200678000000057,Zr1Co1,mp-2283
3.7260999999999997,-3.251169582083334,La2Br2O2,mp-23023
3.1980999999999997,-1.0736561713888895,Zn4I8O24,mp-23360
0.6409,-1.165931859741379,Rb8Co4Br16,mp-23366
0.07420000000000027,-0.5631295583203118,Nb12Se48I4,mp-23410
0.0,-0.7596020490799992,Gd1H2,mp-24092
5.3873999999999995,-0.4593677448405306,Cs2B12H12,mp-24136
0.0,-1.5357423325,Dy1As1,mp-2627
2.1090999999999998,-1.727668889544118,Na32Fe8O28,mp-27557
0.38530000000000086,-0.4479452128571433,Tc4P12,mp-28029
3.8178000000000005,-0.767095040626856,Na12P24N44,mp-28161
0.0,-0.9149409812500009,Er1Pd3,mp-2825
0.0,-1.4378407855307125,Cs2Ag2Cl6,mp-28610
0.0,-3.4492560863541666,Sr2Ti22O40,mp-28740
0.0,-0.04585212624520965,Cs3C24,mp-28861
0.23030000000000017,-2.458551107205882,Ba10Ru4O20,mp-28908
0.0,-0.6680293416666672,Y4Si8Mo6,mp-2932
2.914,-2.213402649431818,Li5Sb1O5,mp-29364
1.1514000000000002,-0.24767349320312482,Tl16As16Se32,mp-30236
0.0,-0.5388169949999999,Li2Sb1Au1,mp-30404
0.0,-0.16157995333333255,Hf2Cu1,mp-30581
0.0,-0.8703798487499999,Sc1Ga1Pd2,mp-30661
0.0,-0.629007755,Zr4Ga4,mp-30682
0.0,-0.21021211104166623,Nd2Zn22,mp-30802
0.0,-0.10757176000000186,Ni4W1,mp-30811
1.4863999999999997,-2.334661162019231,La2Sb6O18,mp-31418
0.0,-0.4237090438888889,Tb2Ag2Pb2,mp-31447
0.0,-0.6382207300000005,Pr2Fe2Si4,mp-3275
0.0,-0.3122247329166665,La1Mg1Ni4,mp-3289
0.0,-0.5217506300000003,Ho2Ni2Pb1,mp-3398
0.0,-0.4781448756060614,La2Ni5B4,mp-3471
2.6979999999999995,-3.0526146669318193,Ho4Sn4O14,mp-3884
0.0,-0.951273062,Tb1Si2Pd2,mp-4250
0.0,-0.0555020488888888,Be1Al1B1,mp-4262
0.24290000000000012,-0.8016609559568966,Rb3Au1O1,mp-4405
0.0,-1.3277352463461545,V4Ga1S8,mp-4474
4.984,-2.3195980254375,Na4S2O8,mp-4770
2.0193999999999996,-3.5640281083125003,Gd2S1O2,mp-4805
0.0,-0.955157655714286,Y12Si8Rh8,mp-504772
0.0,-0.7493980858333344,Sc8V12Si16,mp-504941
0.0,-2.5918861422794106,Ba1Nb7O9,mp-505078
0.0,-1.4774909692342857,Pt4F24,mp-505319
0.0,-0.682521106,Sc4Fe8Si8,mp-505554
0.0,-0.6985515385,Sm1Ni2Ge2,mp-5167
3.7776999999999994,-2.4237306288450005,Sb12O8F20,mp-541240
2.0490999999999997,-2.7682862255833327,Ba6Cr4W2O18,mp-541512
1.4612000000000003,-1.0266706831758003,Rb8Zr6Se28,mp-542013
0.0,-2.7451409772099997,Sr4Mn2Cl2O6,mp-542187
7.1465,-3.6622376771927585,Rb4Na2Al6F24,mp-542451
0.0,-0.1688317666666658,V6Co18,mp-542614
1.2930000000000001,-2.028019135848214,Sm2Zn2P2O2,mp-550820
1.6317,-1.7079503132812501,Dy4Cu4S8,mp-554120
1.8342999999999998,-1.674777802389785,K28In8O26,mp-554146
3.6505,-2.734641655196078,La12Mo18O72,mp-554402
1.7773999999999999,-1.9645046347399997,K12Mn12O24,mp-554900
1.2356000000000003,-0.6773393523214288,Hg2Bi4S8,mp-554921