band_gap,formation_energy_per_atom,full_formula,task_id
0.7714000000000001,-1.936813694305556,Ba8Cu8O20,mp-772788
1.6621000000000001,-1.234195274978449,Cs2O2,mp-7896
0.0,0.0,Zn2,mp-79
0.0,-0.4862660299999999,Ca10Si6,mp-793
6.020300000000001,-3.147891758690476,Ca8B16O32,mp-8056
0.0,-0.8481170366964284,Sm2Cu2P4,mp-8287
2.0909999999999997,-1.0987774681979168,K2Se1,mp-8426
0.0,-0.36863877000000045,Sc2Al1Tc1,mp-862543
0.0,-0.32899467937500004,La1Mg1Zn2,mp-862662
0.0,-0.2652932875000005,Li1Y2Ru1,mp-862673
0.0,-0.20248939625000073,Pm2Cu1Ru1,mp-863671
0.0,-0.7649099239999998,Ho4Mg2Ge4,mp-863723
0.0,-0.4303975099999999,Ba1Hg2Pb1,mp-864618
0.0,-0.45341182874999975,Yb2Tl1Cd1,mp-864743
0.0,-0.8146931483333333,Tb1In1Pd2,mp-864808
0.0,-0.1922331925000016,Mn1V2Cr1,mp-864953
3.0028,-1.8583757287499996,Dy2Br6,mp-864982
0.0,-0.5701172049999998,Tb1Yb1Hg2,mp-865254
0.0,-0.32540299749999946,Tm1Ta1Os2,mp-865270
3.8453,-2.6411556461949997,Lu2Cl6,mp-865324
0.0,-0.5164350312499995,V1Si1Tc2,mp-865472
1.0972,-0.9901228434635415,Lu2Cu2Pb2Se6,mp-865492
0.0,-0.3846429425000002,Lu2In1Ag1,mp-865505
0.0,-0.6870644512499995,Y1Sn1Au2,mp-865514
0.0,-0.47260404749999996,V1Ga1Ru2,mp-865586
0.0,-0.27893512708333335,Li2Ho1In1,mp-865622
0.0,-0.5188457429166675,Ti1Mn2Si1,mp-865652
0.0,-0.6653167674999998,Yb1Pd2Pb1,mp-865816
0.0,-0.39164657437500017,Yb1La1Cd2,mp-865859
0.0,-0.6507257912500002,Be1Si1Ir2,mp-865904
0.0,-0.32109485000000015,Li2Ca1Si1,mp-865965
0.0,-0.49457475166666737,Y3Al7Cu2,mp-865990
0.0,-0.23466740499999972,Li1Gd2Ru1,mp-866058
0.0,-0.5220576375000006,Lu1Sb1Ru2,mp-866138
0.18979999999999997,-0.5868797728571431,La4Zn12As12,mp-866648
0.0,-1.1092590045210728,Rb2Sb1Br6,mp-866668
0.0,-0.9050919850000003,Al2Ru1Pt1,mp-867125
0.0,-0.9285947124999998,Al2Ru1Rh1,mp-867326
0.35630000000000006,-1.7455956444687502,Ba2Cu2Se4O12,mp-9639
0.0,-0.5899886006249999,Sm1Hg1Au2,mp-972623
0.0,-0.4638344912500001,La2Tl1Hg1,mp-973572
0.0,-0.3125316329166665,Lu2Cd1Ag1,mp-973956
0.0,-0.046224497499999906,Mg2Tl1Pb1,mp-978256
0.45310000000000006,-0.4501278009049998,Sr1Ga1Si1H1,mp-979137
1.5234999999999999,-2.546141569739584,Ba6B2As2O6,mp-9793
1.4196999999999997,-1.0689481289279996,La4Cr4N12,mp-989612
1.4950999999999999,-2.0524321630473334,Zn2Ag2F6,mp-998537
0.7269999999999994,-1.0609463424999999,Tb1Tl1Te2,mp-999121
1.4689999999999994,-1.7039013770312499,Lu1Cu1S2,mp-1001780
0.0,-0.059170734310000306,Fe1H1,mp-1009077
0.40390000000000015,-0.31502022999999957,Mg2Sn2As4,mp-1009082
0.0,-0.2816180981034487,Zn3Ni20B6,mp-10131
0.0,-0.827072276666667,Pr2Ge2Au2,mp-1019094
5.390899999999999,-3.1131764868201763,Y4Be8B20O44,mp-1020740
0.0,-0.5530920555357142,La2Re2Si2C1,mp-1025245
0.0,-0.4172704364285705,Pr1Re4Si2,mp-1025309
0.0,-0.3331867766071426,Tb2Mo2C3,mp-1025326
0.0,-0.29255605274999963,Sc1Co3C1,mp-10270
0.18409999999999993,-1.539008256745556,Li4Ti8N12,mp-1029424
2.2289,-0.9381016747516663,Li24Y8N16,mp-1029592
0.17110000000000003,-0.4710240769022844,K16Mn16N32,mp-1029804
2.5573000000000006,-1.359535306081819,Ca6Al6N10,mp-1029921
0.0,-0.5098579345018179,Li12Ru2N8,mp-1030649
0.0,-0.9770228856454081,K2Eu2P2Se8,mp-10382
0.0,-0.4156607919999999,Y1Al2Ge2,mp-10521
0.0,-0.9393698497420644,Ca5P12Rh19,mp-10582
0.0,-0.776541709,Y1Si3Ir1,mp-1068587
0.0,-0.28859193875000005,Nd1Cd1Ni4,mp-1077379
0.0,-0.32124387777777724,Ce3Al3Cu3,mp-1079868
0.0,-0.9309228122222224,Er3Sn3Pd3,mp-1079874
0.0,-0.5534209737499998,Hf4Sb4,mp-1079914
0.0,-0.8194702756666665,Y4In2Au4,mp-1079933
0.0,-0.6630690609375005,Zr4Pb2C2,mp-1079992
0.0,-0.6400429318749996,La2Cu2Ge4,mp-1080588
0.0,-0.6089537190000002,Er4Ni4Sn2,mp-1080713
0.0,-0.7878949354759996,Pr3Al1N1,mp-1094072
0.0,-0.4848940724999995,Zr2Cu2Ge4,mp-1095201
0.4262999999999999,-0.9392264625000003,Li4Yb4Sb4,mp-1095371
0.0,-0.10227479666666639,Yb4Os8,mp-1095482
0.0,-1.1824809083333332,Tm4As4Pd4,mp-1095625
0.0,-0.30539648166666683,Tb4Os8,mp-1095666
0.0036000000000004917,-2.3785325670312503,Ce1S1,mp-1096
0.49150000000000027,-0.7544906962351199,Fe4P4S4,mp-1101971
0.0,-2.38510597786,Ce4N2Cl6,mp-1101996
0.0,-1.026405349166667,Eu4Si4Pt4,mp-1103258
0.0,-1.0289391324999997,Nd4Ga4Pt4,mp-1103572
0.0,-0.7856098655882353,Ca5Ge6Pd6,mp-1105294
0.0,-0.5531933331249999,Tb10Pb6,mp-1105825
0.0,-0.34327488125000016,Zr6Au2,mp-11263
0.0,-0.8409269095833336,Er1In1Pd2,mp-11371
0.01750000000000007,-0.3134838215277777,Ca3Al7Ag2,mp-11430
0.0,-1.3794345758333333,Ba1Ni1I1O6,mp-1147557
3.4112,-1.5607607646875001,Li2S1,mp-1153
0.8799000000000001,-1.3400051911718753,La4Cu4Se8,mp-11790
1.7300999999999997,-0.6311960724257142,Sr8H16Pd4,mp-1179173
0.0,-0.11293751250000028,Be1Cr1Fe2,mp-1183416
0.0,-0.3261043927083329,Ca1Sm1Ag2,mp-1183560
0.0,-0.34797672291666704,Er2Zn1Ag1,mp-1184083
0.5612999999999997,-0.030055704466666385,Mg149Au1,mp-1185573
0.0,-0.29019458000000053,Tm1Lu1Cu2,mp-1187606
0.0,-0.25521747375000103,V2Os1W1,mp-1187694
0.0,-0.7631856624999998,Y2Cu1Pt1,mp-1187771
1.2779000000000003,-1.2155662603385418,Y4Ag4Se8,mp-1188559
0.0,-0.5040221005208338,Nd6In10,mp-1188947
1.1475000000000004,-0.29347144449999973,Te12Ir2Br6,mp-1188957
0.0,-0.5932291893750001,Ho12Ir4,mp-1189120
0.16670000000000007,-1.6296223484999999,Tb7Rh1Br12,mp-1189645
0.0,-1.1379920299999995,Gd4Si4Pt8,mp-1189670
1.4149000000000003,-1.217057426197916,Li8Sn4S12,mp-1190364
3.2602,-3.120687837954546,Sr6Li2Nb2O12,mp-1190404
0.0,-0.7149005521428567,Sc2Mn12P7,mp-1190950
0.0,-0.47590020595238175,Ca2Ni12As7,mp-1191589
3.5538,-2.9704067663881273,Cs4V4O4F16,mp-1193015
0.0,-0.3376493962068972,Ti3Co20B6,mp-1193476
3.3651,-0.27429596611703694,Li3Mg3Al3H18,mp-1193498
1.8129,-2.5075040966071436,Sr4Tb8S16,mp-1193989
0.5605,-0.43138462683333345,K22Cd4Sb10,mp-1194660
0.0,-0.5450318936363643,Zr12Sb28Pd4,mp-1195256
4.089,-2.105287660985992,Cs4Sb4S8O32,mp-1195448
0.0,-0.8512173068421051,Sc10Si20Ir8,mp-1195748
3.5422,-3.7609513011458344,Ba4Pr8Sc8O28,mp-1195909
1.2923,-0.39632813354166685,Tl16Ge4Se16,mp-1196396
5.6628,-3.0367325778983516,Tb8P24O72,mp-1196764
2.6654999999999998,-1.956390131098484,Sn24Bi24O84,mp-1198288
0.0,-0.6554696802777771,Dy8B24Os4,mp-1198294
0.1392,-2.4022745391692077,Pr4Nb4S14O60,mp-1198513
0.0,-0.6735048736111113,Dy8B24Ru4,mp-1198707
0.0,-0.8728016865789467,Dy10Si20Ir8,mp-1198889
2.4662,-1.8239758747272725,K24Fe8C48O96,mp-1199661
0.7013,-2.4522652117301837,Ce4Nb4S14O60,mp-1199771
1.4104999999999999,-1.9383042395726322,K2Mn12As14O48,mp-1200457
0.0,-0.5258427242857137,Tm2Al3Si2,mp-12005
0.0,-0.8744927593243235,Dy6Si22Pt46,mp-1200984
0.0,-0.7495151590476183,Tb22Sn20,mp-1201140
3.8858000000000006,-3.2513564339285717,Pr16As4Br4O32,mp-1201161
0.9605999999999999,-0.4441120062413795,Cs16Se64,mp-1201920
2.5219000000000005,-1.3877770506176925,Li10La10Si8N24,mp-1202424
0.0,-0.3952887148684216,Nd2Ni24B12,mp-1202698
2.1585,-1.914784855243056,Pr32In8Sb8S72,mp-1203279
6.0124,-3.396761451362768,Ba4P3H1F24,mp-1203328
0.0,-0.7144687268750003,Hf8Ni12As12,mp-1203331
0.0,-0.2626324787735847,Yb12Al86Mo8,mp-1204409
0.0,-2.4881212089020277,Nd4Tm11S22,mp-1204447
0.0,-0.7379758555555563,Y3Pd3Pb3,mp-1205369
0.0,-0.801915382,Er4Ge4Ru2,mp-1205564
0.0,-3.1063967467499993,Ba2Er1Mo1O6,mp-1205628
0.0,-1.0342693958571432,Er1P2Ru2,mp-12058
0.0,-3.1310973352500007,Ba2Lu1Mo1O6,mp-1205836
0.0,-0.5120310916666666,Pr2In4Ir2,mp-1206065
0.0,-0.6219620949999994,Dy2Al2Si2,mp-1206330
0.0,-1.1615625058333332,La2Si2Pt2,mp-1206485
0.0,-0.6725507819444445,Nd3Cd3Pd3,mp-1206604
0.0,-0.47009455900000036,Nd2Ga1Ni2,mp-1206785
0.0,-0.4665047642499999,Sm2Fe4Si2C2,mp-1206795
4.4991,-0.9717573077638093,Zr2Cl8O32,mp-1207478
0.4962,-2.8303158797499997,Yb4Cr4O12,mp-1207582
0.0,-0.20787774916666635,Y16Mg4Ni4,mp-1207825
0.0,-0.35943365122806964,Y12In1Ni6,mp-1207989
2.9712000000000005,-0.9255895859375003,Tl4Pb8Br20,mp-1208111
0.0,-0.6660210935555558,Tb10Si4B16,mp-1208405
0.0,-0.4831589091666668,Sm16Mg4Pt4,mp-1208870
0.0,-0.7381695873333328,Sc4Mn2B4Ir10,mp-1208987
0.0,-0.6635482731818179,Sc12Sn10,mp-1209024
0.0,-0.5423304542857151,Sm4Ga18Ru6,mp-1209216
3.4868,-2.9486609960305636,Rb8Ta6O19,mp-1209439
0.0,-0.0783706267177522,Rb8Ge46,mp-1209551
2.5967999999999996,-2.9325470729942853,Mg4Mn4Si4O16,mp-1210608
0.0,-0.2851190932075473,Lu12Ta8Al86,mp-1211259
0.0,-1.5794327615699997,K2W2Cl12,mp-1211264
3.0018000000000002,-2.1074258334741383,K8Rb8Ge8O24,mp-1211560
6.5064,-3.6355480101140003,K6Er2F12,mp-1211695
3.4284999999999997,-2.70787717527463,K2Rb1Nd1V2O8,mp-1211725
0.0,-0.16656340166666675,Hf6Bi6,mp-1212407
0.8994,-2.6173399702499998,Er4Rh4O12,mp-1213022
0.0,-2.2943645639166665,Ba6Fe2Ru4O18,mp-1214638
0.0,-0.43375223749999997,Zn16Pd8,mp-1215714
0.0,-0.24729972181818158,Te8Ir3,mp-1217357
0.0,-0.5391389222499996,Hf10Ni30,mp-12174
0.0,-0.3440799179166669,Tb2Zn1Ag1,mp-1217670
0.0,-0.2456342583333324,Ta4Co1Ni1,mp-1217989
0.0,-0.4775715875000004,Sm2In3Sn3,mp-1219315
0.0,-0.374357096388889,Li3Sn11Pd4,mp-1222500
0.0,-0.2732613762499992,La1Cu1Ni4,mp-1222960
0.0,-1.1395903721428573,La8Sb6,mp-1223
0.0,-0.5307772891666674,Ho1Al1Ni4,mp-1223899
0.0,-0.4944982083333329,Hf6Al2Ge10,mp-1224464
2.1557,-2.29311703888254,Ho2P4H10O20,mp-1225006
0.0,-0.5430363520312506,Cu9Sb1As2S12,mp-1225890
0.0,-1.0860102186538465,Cr4Ga1S8,mp-1226264
0.0,-2.4619218358400006,Eu4Mn2Ge8O24,mp-1226301
2.1812000000000005,-2.540675552650862,Cs8Si8Sb8O40,mp-1226548
0.0,-2.8460562537753322,Ca4Nd8Mn12O36,mp-1227543
0.0,-2.3966175708460007,Ca4Mn2Ru2O12,mp-1227575
1.2277,-2.6261287661574073,Ba8Sr4Nd4Co8O30,mp-1228541
4.1226,-3.3551141103411113,Ba4Lu2B4Cl2O12,mp-1228639
0.0,-0.8908282041948051,Eu6P19Rh30,mp-1229174
0.0,-0.7857067945108693,Ce16Ag12Ge16O2,mp-1229274
4.2231,-1.9466859947774837,Cs4Sc12H24Se24O80,mp-1229290
0.0,-0.3213190349999997,Li2Cd1Sn1,mp-12580
0.0,-0.1110268733333329,Ca8Cu4,mp-12614
0.07109999999999994,-2.8949592572499996,Ba2Tm1Ru1O6,mp-12729
3.9930000000000003,-3.7575440149999992,Tb2Ta2O8,mp-12932
0.0,-0.5973456733333334,Tb4Zn4Sn4,mp-13163
0.0,-0.2593114663888893,Sc1In1Cu4,mp-13240
0.5007000000000001,-1.8746943436562495,Nd2Lu2Se6,mp-13327
0.0,-1.0737964574999985,Hf4Si4Rh4,mp-13472
0.0,-0.5015304349999994,Nb2Ir2,mp-1359
0.0,-3.072743670500001,Ba2Ho1Re1O6,mp-13933
0.0,-0.6698064766666662,Ca2B4Ir4,mp-14445
0.0,-1.2851372275833342,Cu8Ag2As6O24,mp-14455
7.6904,-3.4995543387140002,Li18Al6F36,mp-15254
0.0,-0.5571621340000007,Ba1Mn2As2,mp-15608
0.0,-0.8152005808928574,Cu2Rh4S8,mp-15613
0.0,-1.9450567991666676,Re4Sb2O12,mp-15910
2.5782000000000003,-2.221303409087302,Hg8P16O48,mp-15994
0.0,-1.356549070714286,Y1P1Pt1,mp-16304
0.0,-0.678739915,Sr2Sn2,mp-1698
1.9580000000000002,-1.1661324466066663,Ba8Nb4N12,mp-17024
0.0,-0.23742237874999983,Nb10Ga2Sn4,mp-17230
0.0,-0.32328791625000025,Zn12Si4Ni8,mp-17260
5.639399999999999,-4.4237451135949994,Lu12O8F20,mp-17673
3.7032,-2.8290427425487015,Sr4Cd4P8O28,mp-17693
0.0,-2.6226987678409106,Eu6Ir2O14,mp-17981
0.11950000000000038,-0.3532206103809519,Mn4Mo2P24,mp-18302
2.4161999999999995,-3.170385682749999,Gd4Cr4O12,mp-18331
3.8926999999999996,-2.6135123048320006,Na3Mo1O3F3,mp-18753
3.8073999999999995,-2.7414370158333328,Sr2Mo2O8,mp-18834
1.9929999999999999,-2.413844309576843,K4Mn2V8O24,mp-19228
0.0,-1.8974178871875005,Ce2Cr2Se4O2,mp-19375
1.7269999999999999,-1.858412159273333,Mn1As2O6,mp-19409
0.0,-0.36295473777777765,Ta9Te18,mp-1967
0.0,-2.225431416750001,Eu4Rh4O12,mp-19801
0.0,-0.2255897100000004,Sn2Ir2,mp-20033
0.0,-0.45267248222222217,Sr2In4,mp-20074
1.4007,-2.6405498631424993,K1Cr1F6,mp-20076
0.0,-0.33992750166666674,As2Pd6Pb4,mp-20257
0.0,-0.6190897675000002,Li1Ga2Pt1,mp-20363
0.0,-0.4725622424999987,Hf2Si4Cu2,mp-20401
1.4748999999999999,-2.8933933852499996,Nd4Fe4O12,mp-20407
0.0,-0.7041048577209524,Ca8In4N2,mp-20419
0.0,-0.21781673583333294,La1Cu2,mp-2051
0.0,-0.3200273335294124,Eu1Sb12Ru4,mp-20855
0.0,-0.4577530716666664,Ce2Al4,mp-2088
0.0,-2.4192442569375006,Ce8S12,mp-20973
0.0,-0.650556134,Dy1Ge2Ru2,mp-21082
0.0,-0.8121539002380952,Sc22Al4Ge16,mp-21931
0.012800000000000367,-0.4197845119927543,Er6Co58Si8B20,mp-21951
0.0,-0.47419234222222223,Ba2In4,mp-22141
0.0,-0.6711884955555559,Y2Ti2Si2,mp-22179
0.0,-0.27317611388888885,Tb1In1Cu4,mp-22229
0.04900000000000038,-0.8616903550000004,Eu2Sb2Au2,mp-22475
0.0,-0.385444408055556,Nd3In3Cu3,mp-22696
0.0,-0.6791220085714288,Ce8Bi6,mp-23252
2.8997,-2.5026394224599997,Cd1F2,mp-241
0.0,-0.5453016999999991,Nb3Si6,mp-2478
0.0,-0.7196302393750003,Y10Si6,mp-2538
0.0,-3.9320824386842106,Ce7O12,mp-2629
0.0,-0.5483158705650002,Mo8N8,mp-2811
3.0162999999999993,-2.2108420679166656,Tl8B8O16,mp-28244
2.0835999999999997,-1.8530166118750002,Li4Bi4O8,mp-28253
4.3026,-1.0775113064913797,Cs1Br1O3,mp-28873
0.0,-0.2836289330000007,Pr4Mg2Ni4,mp-2926
0.0,-0.5026782053571424,Y2B3C2,mp-29896
0.0,-0.6120094700000003,Zr4Ga6,mp-30686
0.40090000000000003,-0.12771497124999964,Cd2Si2As4,mp-3078
0.0,-1.6232278775958626,Cs2W2Cl12,mp-30974
0.37929999999999997,-0.31984199642241373,Rb16Bi16,mp-31105
0.0,-0.5556638561111116,Ga5Pd13,mp-31485
0.42799999999999994,-0.23663672276785772,Hg2Ge1Se4,mp-3167
1.8338,-2.554704698506,Mn8Nb4O18,mp-31901
4.2650999999999994,-2.1533202211111107,B1As1O4,mp-3277
0.0,-0.3716880979999999,Ce1Al2Zn2,mp-3286
0.20830000000000037,-0.7703214037499997,Nd6Cu6Sb8,mp-3435
1.4838,-0.32308183425223236,Tl12P4Se16,mp-4160
0.0,-0.20540063625000116,Fe4As4,mp-427
0.0,-0.6126868899999998,Y1Co2Ge2,mp-4908
0.0,-1.061511407083333,Pr8Ge8Pt8,mp-505484
0.0,-0.4503295820238092,Nd1In5Rh1,mp-510564
0.0,-2.4427476063261904,Ag2B2F10,mp-5160
0.0,-0.8036939050000003,Zr1Al1Pd2,mp-541047
3.3707,-2.1894183552126436,Rb4Mo6O20,mp-541075
0.0,-0.5657296157142854,Ce4Sn10,mp-541131
0.0,-2.7224266259722234,Ba1Eu2Co1O5,mp-541429
0.0,-0.49856441041666644,Sr2In4Rh2,mp-542537
0.0,-0.17842498722222247,Eu1Ag5,mp-542568
3.6123,-1.7085626055351317,K8Be4H16Se8O40,mp-542813
0.0,-2.120169631071428,Ca2Cu1Br2O2,mp-545481
0.0,-0.568054879732143,Ni3Sn2S2,mp-5528
2.1810000000000005,-1.6166618693923613,Ba4Li4B4S12,mp-554076
2.0772999999999997,-2.3453179862499987,Nd8Cu8Mo16O64,mp-554492
0.32509999999999994,-2.6400346000000012,Eu4C4O12,mp-554518
4.4567,-2.644889906967778,K8Te4Cl4F20,mp-554532
4.3725000000000005,-2.763123064466818,Ba3Si6N4O9,mp-554885
0.0,-0.6154275540178575,Pd6Pb4S4,mp-554993
4.4414,-2.483872731739318,Na8Sb4S4O16F12,mp-557006
4.8149999999999995,-2.4811083939999996,Na2Ca2C3O9,mp-557391
2.7983000000000002,-1.8574749454054058,Bi10Mo3O24,mp-558215
2.3813999999999997,-1.596710343942857,Ba12Ho8P16S64,mp-559171
3.6450000000000005,-2.6617337405392165,Sr2Bi4B8O20,mp-559364
1.9833000000000003,-2.79013151375,Sc4I4O4,mp-559760
1.8316000000000003,-1.0934274515269997,Tl4Re12S16Cl8,mp-560005
2.9008999999999996,-2.7249893687499998,Ta4Bi4O16,mp-560261
1.8126000000000002,-1.8278076607499993,Na16Te8O32,mp-560613
0.0,-2.8975013137286427,Rb4Nb35Al2O70,mp-560765
0.0,-0.5916029301388891,Ho16In4Ir4,mp-567479
0.0,-0.8146181816666669,Er10Ni4Te4,mp-567994
0.0,-0.44726609384615357,Yb6Ga8Ge12,mp-568634
0.0,-0.3731400510416667,La1In1Ag2,mp-568917
0.0,-0.42852679857142867,Ba1Li2Mg2Ge2,mp-569396
0.0,-0.23944614166666658,Sr2Zn4,mp-569426
0.0,-0.36940191854166704,Nd1In1Ag2,mp-569768
0.0,-0.617103939750001,Ho2Si2Ru4C2,mp-570102
4.077999999999999,-0.5823072999999998,Be2I4,mp-570886
0.0,-0.5215817300000006,Ho6Ga18,mp-570953
0.0,-0.7796559340000002,Ba2As4Pd4,mp-571350
0.0,-1.0098850987499999,Ce2Te6,mp-571571
0.0,-3.227355481717032,Yb2Zr12P18O72,mp-578953
0.0,-2.4498731233228574,Eu2Mo2Cl2O8,mp-607826
0.0,-3.1934500745139998,Na12Li12V8F48,mp-6153
4.1056,-2.3303159186194655,Rb2S2O4F2,mp-6384
0.0,-0.19188154391142728,Co8Mo16N4,mp-644838
3.4478,-1.9774460033333332,Hf1Tl8Mo6O24,mp-645513
0.0,-0.5252500887176729,Cu12Sb4S13,mp-647164
0.0,-2.089389265625,Eu1Bi2Br1O4,mp-669431
3.6235999999999997,-2.9222158592142855,Na4Lu4Ge4O16,mp-6712
0.7195,-1.212489468809091,Ca10Nb2N10,mp-675101
2.9365,-3.0441925431629877,Cs2Ta2Co2O4F8,mp-684727
0.0,-0.7634055353399997,Ti12Zn12N4,mp-697075
0.0,-1.5769301612500009,La1As1,mp-708
0.0,-1.001758258000001,Tm1Si2Pt2,mp-7108
2.1837999999999997,-3.379407265218751,Y2Se1O2,mp-752658
0.0,-0.37369250400000026,Y4Mg2Ni4,mp-754185
0.0,-0.09965545769230744,Zr1Mn6Sn6,mp-768613
1.8799000000000001,-1.0941912577678576,Ba2Ga4Se8,mp-7841
3.9497999999999998,-4.0561145517499995,Ho16O24,mp-812
0.0,-1.1132695519999998,Tm1Si2Rh2,mp-8528
0.0,-0.10639235812499992,Ca1La1Mg2,mp-861643
0.0,-0.2603922700000001,Er2Mg1Al1,mp-861946
0.0,-0.37691492041666663,Sc2Ag1Os1,mp-862431
1.8793000000000002,-1.8091667670920142,Pr6Ag2Ge2S14,mp-862792
0.0,-0.2876205093750004,Pm1Tl3,mp-862970
0.0,-0.28975719500000086,Pm2Mg1Si1,mp-863696
0.0,-0.36518159604166645,Nd1Ag1Hg2,mp-864893
0.0,-0.45075968999999905,Mn1Be2Ir1,mp-864943
0.0,-0.5245608350000008,Be2Ru1Pt1,mp-865021
0.0,-0.4327805075000004,Tm1Hf1Os2,mp-865209
0.0,-0.5446578424999995,Gd2Ga6,mp-865386
0.0,-0.3662365177083333,Yb1Nd1Ag2,mp-865426
0.0,-0.2211895587499999,V1Zn1Ru2,mp-865486
0.0,-0.48330940270833267,Ti2Re1Pd1,mp-865538
0.0,-0.4294315670833324,Y2Zn1In1,mp-865671
0.0,-0.6995757362499999,Yb2Hg1Ge1,mp-865909
1.0593000000000004,-1.1116683191789773,K2Tm4Cu6Se10,mp-865972
0.0,-0.3467282691666669,Li2Ag1Pd1,mp-865987
0.0,-0.5597909716666667,Ti1Be2Ir1,mp-866139
1.9070999999999998,-2.6608600759815384,K4Cr2H4F16,mp-866709
0.0,-0.8005494549999996,Sc2Cu1Pt1,mp-867117
0.0,-0.3987017625,Be2Cu1Ir1,mp-867273
0.0,-0.4318070312499991,Sc1Nb1Os2,mp-867786
0.0,-0.6720283937500002,Dy1Cd1Au2,mp-867827
0.0,-0.3263834012500002,Sc1Ta1Tc2,mp-867901
0.0,-0.5960443199999998,Li1Ho2Ir1,mp-867913
0.0,-2.6587290752272725,Sr8Ir2O12,mp-9039
0.0,-0.30916690333333463,Zr2Co4,mp-929
0.0,-0.736819371666666,Eu2Ge2Au2,mp-9293
0.39239999999999986,-0.6604655229999998,Ca1Zn2As2,mp-9571
0.0,-0.3405072708333332,Ho1Er1Ag2,mp-972945
0.0,-0.36990222041666687,Nd2Ag1Hg1,mp-974387
0.0,-0.7144419087499996,Pr1Mg1Au2,mp-975893
1.7638999999999996,-1.7806814534090913,Sn10O12,mp-978114
5.638199999999999,-0.39636682874769275,Na4B24H24,mp-978278
0.0,-0.6306969833333333,Si6Mo2Pt4,mp-978568
0.0,-0.5654953600000001,Yb1Dy1Hg2,mp-980199
0.0,-0.28840941916666685,Pm2Zn1Ag1,mp-982393
0.0,-0.7777784268749999,Pm1Dy1Rh2,mp-984549
1.5789,-1.3892021655747127,Cs2Li1In1Br6,mp-989405
1.0991000000000004,-1.699315711796876,Zr2S6,mp-9921
0.0,-0.8165037887500004,Nd2Pd2,mp-999336
0.0,-0.3174175849999994,Mo2Pt2,mp-999502
0.0,-0.6188904969999995,V2Co2B6,mp-10057
0.6592999999999996,-0.9872357014285711,Ca3Sb1P1,mp-1013550
0.0,-0.9721420454759994,Ti6Zn2N2,mp-1014257
0.0,-0.8190113383333326,Sc1Au2,mp-1018148
0.0,-0.5617676766666667,Hf1Au2,mp-1018153
0.0,-0.06338918833333314,Hf2Cd1,mp-1018156
0.0,-0.4389805799999997,Eu2Cd2Pb2,mp-1018696
0.0,-0.6218679133333337,Hf2V2Ge2,mp-1018726
0.5896,-2.1324367606999997,K4Cu2Cl4F4,mp-1023132
0.0,-0.7074047105555555,Y1B2Rh3,mp-1024941
0.0,-0.2466695694444443,Tm1Cu4Ag1,mp-1025116
1.2717,-1.3925240992968755,Y1Tl1Se2,mp-1067744
0.0,-0.5371722150000003,Eu1Ge3Pd1,mp-1068422
0.0,-0.8073797150000004,Gd1Si3Ir1,mp-1069477
0.0,-2.9852303865000005,Dy2Bi1O2,mp-1069561
0.0,-1.163405113333333,Gd2Si2Pt2,mp-1071675
0.0,-1.2577443573809528,Gd2P2Pd2,mp-1077329
0.0,-0.3962768993750001,Ba1Mg4Ge3,mp-1078462
0.0,-0.3592333061111109,Pr3Al3Cu3,mp-1078692
0.0,-0.48315874166666645,Ce2B4Os4,mp-1080734
0.0,-0.8357474823809525,Ti3P3Os3,mp-1095128
0.0,-1.0694949024999996,Sc4Ge4Pt4,mp-1095253
0.0,-0.9522245666666661,Gd4Ge4Rh4,mp-1095527
0.0,-2.4658402973697924,Tb5S7,mp-1095641
0.0,-0.5960446325,Eu4Ga4Ge4,mp-1101845
0.0,-0.5408939349999997,Ba4Ga4Ge4,mp-1102026
0.0,-0.17698194500000022,Dy4Tc8,mp-1102084
0.0,-0.5526058662878787,Nd3Ag4Sn4,mp-1102578
0.0,-0.6559125633333339,Pr4Ni4Ge4,mp-1103115
0.0,-1.212655831666666,Dy4As4Pt4,mp-1103232
0.0,-0.9154435508333331,Gd4Sn4Pd4,mp-1103503
0.0,-1.0287955891071436,Gd6C2I6,mp-1104611
0.0,-0.6163477520000015,Eu9Pd6,mp-1105286
0.0,-0.588332215416667,Ta10Ge2B4,mp-1105309
0.0,-0.6909181938888894,Ti2Te2As2,mp-11113
2.0854999999999997,-1.3661816803313573,Cs2Y2Cd2Se6,mp-11116
3.7413999999999996,-2.367971608056,K2Li1Sc1Cl6,mp-1111932
0.0,-0.6454207425000007,Sc2Ga4Ni2,mp-11401
0.0,-0.4291488591666666,Nd1Hg2,mp-11468
0.0,-0.9689150099999999,Mg1Zr1Pt2,mp-1185625
0.0,-0.12651285666666823,Ti1Mo2W1,mp-1187245
0.0,-0.28022813000000113,Zr2Fe1Tc1,mp-1187984