band_gap,formation_energy_per_atom,full_formula,task_id
1.853,-1.02976402790875,Ba24Mo8N32,mp-8863
2.1949,-2.5448414364618768,Cs2K4Pd2F10,mp-8959
1.4928,-0.5454764024642861,K4Na2Al2P4,mp-9068
3.8007,-2.946514592375,Na4Al4O8,mp-9212
0.7309999999999999,-2.3355775336363642,Ca12Tl8O24,mp-9216
2.8403000000000005,-3.3540815258333345,Mg2Ta4O12,mp-9650
2.2339,-2.156049147332975,Cs2Dy2S4,mp-984555
3.5184999999999995,-2.6172110773673465,Ca1Sn4P6O24,mp-984716
4.6341,-3.090543258250435,Ba3Si6N2O12,mp-985697
0.012000000000000456,-0.4853625183333321,Eu2Ir4,mp-995
0.3725999999999998,-1.6394288306562508,Ba4Zr4Se12,mp-998427
2.8280000000000003,-1.2921970100689657,Rb2Pb2Br6,mp-998603
1.3132,-3.3621899350841677,Y2S2F2,mp-10086
0.3244999999999996,-0.3511378714285713,Mn1Al2Te4,mp-1025315
2.3664,-0.6905659353566662,Ta4Zn8N12,mp-1029387
1.4398,-0.8243913731381812,Li12Cr2N8,mp-1029498
1.2561000000000004,-1.5327234449399985,Ba2Hf2N4,mp-10322
0.1318999999999999,-0.6752283964285724,Nb2P4,mp-1077116
0.07370000000000054,-0.2621645888888888,Gd1In1Cu4,mp-1077293
2.6299,-2.0743198307500013,Sc1Ni2Sb1O6,mp-1078244
1.3989999999999998,-1.205059914920259,Cs4S6,mp-1079600
2.5006000000000004,-2.4823198720312503,Sr1S1,mp-1087
2.2744,-1.1874607390999998,K4Sn4Br12,mp-1097014
0.04969999999999963,-0.4794657983333329,Sr4Cd4Ge4,mp-1101809
1.1677999999999995,-1.3154889453645833,Zr2Tl4S6,mp-1102830
1.6116,-1.6362137456071435,K2Gd2Ge2S8,mp-1104447
0.7901999999999996,-1.1006118377011491,Cs2Gd2Zn2Te6,mp-1104469
0.007600000000000051,-1.2897500452941175,Tb6Ir1I10,mp-1105727
0.05259999999999998,-1.2882936796562496,La4Cr4Se12,mp-1105933
1.7665,-2.7118173633139997,K2Li1Rh1F6,mp-1111665
3.6441,-2.2074734388640462,Cs2Tb1Ag1Cl6,mp-1112937
4.776,-2.7266642177975005,Ba2Zn2C2O6F4,mp-11166
1.0414999999999996,-1.9952472311562504,K2Ho4Cu2S8,mp-11606
1.3388,-2.2733180452870383,K12V8S16O72,mp-1181810
0.7896,-3.037855442541087,K20Cr40F124,mp-1182535
0.0020999999999999908,-0.022093918399999857,Mg149Br1,mp-1185549
0.4779,-0.02501728679999985,Mg149Ga1,mp-1185597
0.19700000000000006,-0.02055535498333313,Pm1Mg149,mp-1186748
0.4499999999999997,-0.6253364950416661,K4Ni6Se8,mp-1188089
1.8644000000000005,-2.3992787314375006,Sm4Sc4S12,mp-1188840
1.6522,-1.0410987452235996,Cs4S12,mp-1188913
2.8711,-3.3952211417045466,La6Sb2O14,mp-1190600
3.9523,-4.003798361022728,Nd4Hf4O14,mp-1190845
1.3653999999999995,-1.964489764553572,Ba4Er8Se16,mp-1192805
1.7563,-1.7916586926630438,Mg2Au4S8O32,mp-1194889
3.4941000000000004,-1.047764831079387,Li4Nd4P16N32,mp-1195211
1.3829,-0.5643018672154293,Cs16Ge4P16Se48,mp-1195417
2.8098,-1.8837133833492647,K8Mo8Se8O44,mp-1195788
0.3157000000000005,-0.3404618615625008,Eu4P28,mp-1195922
3.1917,-2.0395848517171062,K12Bi28S16O96,mp-1196099
2.6009,-3.250200850862601,Cs4Li8Gd16B20O60,mp-1197930
0.026200000000000227,-0.19536613425000052,Pr28Ru12,mp-1197932
2.2633,-2.543276681200909,Tl2Sb6F36,mp-1199017
1.7230000000000003,-1.1165229055226298,Cs8Zn4Bi8S20,mp-1199216
2.9951000000000003,-2.068131121757648,B12Pb12N4O40,mp-1200969
0.1038,-2.7675485611749995,Li16Be12P14O58,mp-1201314
3.2871,-2.402848964847329,Cs4Mo4P8H4O36,mp-1203598
2.0969,-0.8875038684791671,Na16Au16S16,mp-1204074
0.07309999999999972,-0.2773885299999999,Yb26Zn116,mp-1204970
4.3616,-3.075361203080357,Ba8P4I4O16,mp-1205080
0.5561000000000003,-0.38456023213793106,Rb4Ni2As4,mp-1205648
0.793400000000001,-0.8029949514999999,Zr6Sb8Pt6,mp-1207448
1.484,-2.721009750901251,Y4Mn4Ga4O20,mp-1207709
1.3710999999999998,-1.7424692836764717,V6Co20As2O40,mp-1208112
0.4868999999999999,-2.6268608677759753,Sr4P8Pd4O28,mp-1208663
1.9007,-1.1387973450371325,Sr2Ca49Mo12N56O3,mp-1209837
0.31700000000000017,-0.2603650906338024,Sc26Zn116,mp-1210170
3.9691,-3.358398921501774,Na3Nd9B8O27,mp-1210255
3.9121,-3.18806367203,Na4Mg2Fe2F14,mp-1210436
4.9424,-2.960576760556122,Na24Sm8P16O64,mp-1210769
6.4831,-3.6555794871139997,K6Lu2F12,mp-1211665
0.3664000000000001,-2.1481447162735288,Na6Mn10Ge12O40,mp-1211859
1.1513,-2.168935915245652,K4Hf24C4Cl60,mp-1211876
0.005700000000000038,-1.2547823497552832,Cs2Pr10Os2I17,mp-1213720
0.16400000000000015,-4.243661048435,Ce2Hf4F22,mp-1213799
0.01999999999999957,-0.6638285357142857,Ce4Ga18Ir6,mp-1213877
4.3647,-3.384723969166666,Ca4Nd1B3O10,mp-1214008
1.3806000000000005,-0.0463210267187506,Cd4P56Pb4,mp-1214259
2.7427,-2.9877515887114847,Ti2Nb2P6O24,mp-1216943
1.2619000000000002,-0.06550977087499987,K32Si32,mp-1217
1.0785,-0.5643996036363642,Ta16Se64Br8,mp-1218308
3.4466,-3.4773273466071433,Nd8Cd2Si6O26,mp-1220265
3.4622,-4.055983642626249,Nd6S2O2F10,mp-1220289
2.4069000000000003,-3.0713533974149674,Mg1Ti4P6O24,mp-1222070
1.2229,-0.19771966861979115,Lu2Si9B36C1,mp-1222448
0.008300000000000196,-0.3214372595999997,K2Cd3Sn1As4,mp-1223689
1.5503,-1.2030485108677778,H9Au1Cl4O4,mp-1224602
1.6400999999999994,-1.4377454653645831,Dy2Cu2Pb2S6,mp-1225327
6.645,-3.42678067845538,Cs4Be4F12,mp-12262
5.5943999999999985,-2.9493911314228707,Cs6Nd6P24O72,mp-1226879
3.7915,-3.4639027807753338,Ca12Al14Cl2O32,mp-1227232
1.7095000000000002,-0.7920158138541673,As4Ir4S4,mp-1228823
5.820200000000002,-2.631762707621528,Ca8Mg16S24O96,mp-1229186
2.3572999999999995,-2.88508706375,Tb4Sb4O16,mp-1236862
0.003000000000000003,-2.371948997871528,Na2Mg4S6O24,mp-1236984
3.4657000000000004,-3.59226225925,Ba2Y1Ta1O6,mp-12385
1.3382999999999998,-0.2118861463846984,Cs32Ge32,mp-1273
3.0185,-3.5980195303125,Y2S1O2,mp-12894
1.6357,-1.6879914873076924,Cd12As8O32,mp-13602
0.019000000000000128,-1.0963003149999997,Gd2Pt4,mp-1422
1.7787000000000002,-2.389558545333,Rh4Pb8F28,mp-14276
5.107,-3.085153028021978,Mg6P4O16,mp-14396
1.8644,-0.9636999191819321,Cs4Nb2Ag2Se8,mp-14637
4.6792,-3.6038075255833326,Ca12Hf4Si8O36,mp-15003
1.4599000000000002,-0.1354405954480232,Sb8P12Se36,mp-15046
3.8268,-2.966546972659483,Rb16Cd8Si40O96,mp-15125
0.5720000000000001,-0.4501936904827592,Cs4As6,mp-15557
2.0229,-2.82499442225,Sm16Au8O36,mp-16160
0.7873999999999994,-1.5490466099999998,Ba4Tb8Te16,mp-17153
2.0228,-1.20850116497306,Rb12Sb4S16,mp-17154
0.7570000000000001,-0.8241485822222224,Ba12Sn8As16,mp-17470
2.0142999999999995,-1.9581510197222234,V8Hg4O24,mp-17749
0.8812000000000001,-2.056382667808182,Zn4Hg4O2F12,mp-17972
1.2589,-1.024683695645408,K4Ba4P4Se16,mp-18156
3.3129,-1.233154630201999,Be24N16,mp-18337
3.1374000000000004,-2.4278832668879313,Rb12Si4O14,mp-18483
1.0922,-2.66822208195875,Dy4Mn8O20,mp-18601
2.1318,-1.9155061179166684,Tl2V4Ag2O12,mp-18853
1.7085,-2.3675801985833327,Fe2B2O6,mp-19097
3.0302,-3.185415961666667,Pr2V2O8,mp-19169
0.0057999999999998044,-0.5952004536805559,Gd1B2Rh2C1,mp-19756
0.0005999999999994897,-0.6111038212500004,Li4Ce4Ge8,mp-20428
0.00399999999999956,-3.408889446583333,Ce4B4O12,mp-20882
0.5611999999999999,-0.5276465725000001,Ba8Ge16,mp-2139
2.4222,-2.335226038387066,Mn8Be6Ge6S2O24,mp-21616
2.6564,-2.1392343203947357,Li8Fe8Mo12O48,mp-21778
0.6165,-2.7630579191666675,Gd2Cr2O8,mp-22244
0.01440000000000019,-0.8146028491145842,In2Cu2S4,mp-22736
2.0678,-1.6896426071519997,Bi2Pb2Cl2O4,mp-23084
1.7747,-1.0665372559904762,P4Cl20,mp-23228
4.0342,-1.1433164404807146,P4Cl12,mp-23230
2.4243,-1.66196587828125,Bi8Te4O20,mp-23334
3.8959,-1.5930512995297803,Cs8Pb2Br12,mp-23436
0.037199999999999456,-1.5714269151136369,Bi4Ru4O14,mp-23445
4.4655000000000005,-0.970842947958334,H6C6N6O6,mp-24230
3.259,-1.849012827178367,Co2P4H16O20,mp-24536
5.4944000000000015,-2.1877992983182906,Er8H24S24O96,mp-24640
2.3713,-0.5075788798021428,Zn16H64N32,mp-24694
3.1001000000000003,-2.729640455952,Sn1F4,mp-2706
1.9953,-1.5028148890277775,In2Br2O2,mp-27703
2.2609,-1.3068610718200002,Al2I2Cl12,mp-27935
0.9846,-0.8252296628125,Mo12S6Br12,mp-28037
0.3418999999999999,-0.902844396607143,Ba24Ga8Sb24,mp-28296
3.4156000000000004,-2.090526606983173,Ca4Se6O16,mp-28535
2.3576,-1.2724638918449998,Ca4I2N2,mp-28553
1.5719000000000003,-1.41400709875,Ca2As1I1,mp-28554
0.991,-1.5658136101071432,K4Br2O1,mp-28627
0.0035000000000002807,-0.639265376363916,Rb1Cr5Se8,mp-28818
1.812,-2.5125258498214293,Sr4Y8S16,mp-29035
2.0996,-0.9207506900689656,Rb4Sn4I12,mp-29405
2.5098,-1.1497437862060005,As4Cl12O4,mp-29863
2.3509,-1.861546932305,Sb4Cl4F40,mp-29940
1.7486000000000002,-1.3056118277678574,Sr4Ge2Se8,mp-30293
3.0704,-1.3929569560938468,Te4H24O24,mp-30981
6.916099999999999,-4.243052818383,K4Ho8F28,mp-31030
1.6415,-0.39224469277777785,Tl4Te2I12,mp-31077
3.6068,-3.60216749825,Tb6Ga2O12,mp-31112
3.3720000000000003,-3.4667417583333333,Ca11Al14O32,mp-33318
1.8405,-3.514399384548613,Sr3Ti2O7,mp-3349
2.5013,-2.078032787517472,Rb2Au2F8,mp-3419
4.0165,-4.04375588,Hf4O8,mp-352
5.6083,-3.5342896559329997,K8Ta4F28,mp-3975
5.0649,-3.4357073099599997,Sr2Zn2F8,mp-5078
0.010600000000000165,-0.7859423273087685,Ba6Cu34S27,mp-530144
5.5173000000000005,-4.133962907649999,Y4Zr12F60,mp-530429
3.1393000000000004,-3.1243263384399995,Ta8Mn4O24,mp-540716
3.4920000000000004,-2.4856776840312502,K16Zn8Si8O32,mp-541537
1.1314999999999995,-0.4014680148958334,Re4Se8,mp-541582
0.7282999999999997,-0.44247436939285706,K12Na6Al2Sb8,mp-541707
0.6364999999999998,-0.42303703294581296,Cs12K6Ga2Sb8,mp-541811
2.3391,-1.1390152215002398,Rb8Ge8S20,mp-541879
3.6173,-2.088706652206806,Fe8P8H16O36,mp-541954
2.5737,-1.7512148103846157,V4Ni6O16,mp-542151
2.9193,-3.335615804892859,Na2Ti6O13,mp-5449
2.8872,-2.509447143152,Ba2Sb2Cl2O4,mp-545500
1.2067999999999994,-1.9904442884375,Y2Zn2As2O2,mp-546011
3.4393,-2.3806997200681823,Na1Sc1As2O7,mp-550925
2.6651,-2.1670198469230773,Li2Co1W2O8,mp-552307
1.4624,-1.3484927846577384,Ba2La1Ag5S6,mp-553874
2.3099000000000003,-1.5464145746174571,Rb8Li4Nb4S16,mp-553962
3.4717,-2.5717400774065933,K12In12P16O64,mp-554506
3.1353,-2.7434952359166678,Ba6Sr2Sb4O18,mp-555078
2.6076,-1.6938822916279852,Cs16Bi32O56,mp-555117
3.3749,-3.0326170898128573,Gd4Mo4O16F4,mp-555179
3.8916,-2.378890008875,Li8W2O10,mp-555377
2.4976,-3.1281886583968257,Na4Ti5O12,mp-555678
2.1497,-1.7394678141999995,Na8Fe8Te16O48,mp-556373
5.0608,-3.1065032001991666,Pr2B4Cl2O8,mp-556450
3.8964,-3.019838675764,K2Na1Mo1F6,mp-556487
1.5453,-0.9755834561799572,Rb8Sb4Au4S16,mp-556894
1.9769,-2.69298142969898,K24V8P16O64,mp-557046
1.4016,-1.7666141952675,Bi8Au20F84,mp-557090
0.7275,-2.3999230766163806,Rb4Cu1Si2O7,mp-557618
2.2231,-3.2575699586354165,K4Ce2Si12O30,mp-557649
4.7105,-2.4696820536377557,Na8Ni8P24O72,mp-557716
3.5923,-2.565330924814538,Rb24In8P16O64,mp-557875
3.4139,-2.3900227553296696,Zn6P4O16,mp-557920
4.2428,-2.5829225011675816,Mo6P18O54,mp-5581
6.4556,-2.8831734647023533,Li4B24O36F4,mp-558105
3.4453,-3.0222314087499997,K2Na2Nd2Nb2O10,mp-558212
3.2791999999999994,-1.8962532751584813,Na24P8S16O16,mp-558432
1.6559,-1.2743349116979177,Ag16Mo8Se12O64,mp-558550
3.3878,-2.6554027252370687,Rb2Nd2W4O16,mp-558850
2.1456,-3.0100603029880952,K6Nb6Si4O26,mp-559346
3.3065,-1.7530051513744696,Cs4K4Te4H24S4O40,mp-559375
5.1205,-2.4668575846762035,Na36S12O48F12,mp-560222
2.8892,-3.267437117888889,Ca18Cr2P14O56,mp-560257
1.7596999999999996,-1.8303605125781257,Nd6Cu2Sn2S14,mp-560300
2.438,-2.6002212187725,Ba6Fe4Cl4O10,mp-560330
4.5993,-3.166677391892857,Na8Al8Si8O32,mp-560334
3.5722000000000005,-2.4323765389583323,Nd2Tl2Mo4O16,mp-560630
1.937,-1.8634351522500008,La2Pb12Br2O14,mp-560665
1.9354,-0.7981399844700008,Au2N10O28,mp-560745
5.7378,-2.401887328185444,Na3Nd3H6S6O27,mp-560799
0.1517999999999997,-0.3161825240238336,Cs8Tl8O1,mp-561017
1.6097,-1.5777247372946248,Rb16Fe4O14,mp-561139
1.6833,-0.6183565870056821,K8Ag24As16S40,mp-561304
2.6265,-1.2794291181250008,Zn8Co8Te8Br16O24,mp-561705
2.6771000000000003,-2.6828760344766014,Cs4Cr4P8O28,mp-562965
4.1816,-2.447332262419644,K16Ni8P16O56,mp-567227
3.2002,-1.5179363488539992,La2C2N4Cl2,mp-567373
4.4697000000000005,-2.1561595125,Sr4Br8,mp-567744
1.3128,-0.2511319560416669,Hg6As2Se8Br2,mp-567949
0.010900000000000354,-0.5765456830555552,Li4Ca8In4Ge8,mp-570850
0.2022000000000004,-0.3954553892857143,Yb4P20,mp-571006
0.1955,-0.7812683651836365,Ba4Ca16Co8N16,mp-606338
0.6975,-0.4422170161785718,K12Na6Ga2Sb8,mp-6112
5.2356,-2.409113948129618,Rb4Li4S4O16,mp-6211
1.0042,-0.9255167127586204,Cs6Cr4I18,mp-621938
3.2385,-2.6321144788240747,Na4Ti2Ge2O10,mp-6228
2.0139,-2.140408007744416,Rb4V8Se4O28,mp-623590
0.4321999999999999,-2.587869130181819,Na2Ca6Ru2O12,mp-6281
0.5251000000000001,-0.24261173726508645,Cs6Na2Pb8,mp-630851
3.2295,-1.0474306502275001,K2H2S2,mp-634676
2.5425,-1.5014128820191073,Al4Bi4Se4Cl16,mp-637206
0.4205999999999994,-1.1387166032664713,Li2Eu8C6I6N12,mp-638276
0.8978000000000002,-0.4176088142114288,Mg4H8Ru2,mp-643023
3.17,-0.6526412813788239,Ba3H12Ir2,mp-643047
4.3203000000000005,-1.6232122909740003,Li8H4I4O4,mp-643069
1.7632,-0.641944876857778,Ba4H12Pt2,mp-643253
4.9327,-2.227438775923999,Na2Al2H4C2O10,mp-644506
2.4629,-2.117663555668104,Rb8Ge8Sb8O40,mp-6639
2.6134000000000004,-3.0846111010000015,Ca12Fe8Si12O48,mp-6672
0.9298000000000002,-2.0952610905926075,Sc4Nb24Cl52O12,mp-667315
3.5801,-2.8175006677759744,Ba2Cd2P4O14,mp-6695
0.9045999999999998,-1.7299759635395866,Rb2Gd4Cu4S9,mp-669578
2.6809000000000003,-3.2959940540205634,Ba6Ti2Nb10Si8O51,mp-677246
4.4357000000000015,-3.0583296933437496,K2Li6Si24Sn4O60,mp-6844
4.0073,-2.848165252975833,In2F6,mp-6949
2.1522,-3.4520098181633343,Na9Sr2Nd9Ti20O60,mp-694961
3.8682,-2.5600479193581815,K4Fe2H4O2F10,mp-696335
2.9851,-1.5457945231667098,K4Cd2H8Se4O20,mp-697945
5.005000000000001,-3.1234448449881813,Ca12Be8Si12H8O48,mp-699464
3.4865,-2.608842066,Nd4Zr6Mo18O72,mp-704125
2.4521,-0.4946982399219998,Li12H24Rh4,mp-733455
3.5073,-1.4161959728962956,Mg2H24N4O24,mp-734042
0.6757999999999997,-0.3563778601666669,Na4Ag2Sb2,mp-7392
0.29879999999999995,-0.6777512434999998,Ba4Zn8As8,mp-7427
0.05120000000000013,-0.58942926603125,Na2Cu2Se2,mp-7433
1.8604000000000005,-1.6820496398214284,Li12Au4O12,mp-7471
1.9688,-1.7767932844228569,Mn4As8O16,mp-752598
2.7237000000000005,-1.8138928841520008,Li2Bi6Cl4O8,mp-754206
6.0429,-3.3460465960416066,Ba2Be2P2O8F2,mp-754604
3.72,-2.66978347125,Li5Ta1O5,mp-755013
0.4224000000000001,-1.3355322757500006,Ba12Si4O4,mp-755363
2.6805,-2.0516105369444446,V4Ni2O12,mp-756506
2.3801,-2.2888581328571425,Li2Cr2Sn2O8,mp-756864
0.7509999999999999,-2.4723237600000005,Nb8Tl8O24,mp-757636
0.027099999999999902,-3.4466588929340287,Mg11Ti25O60,mp-757825
1.5953000000000004,-2.090284266171876,Ba12Pt9O27,mp-757840
4.7134,-1.8260850195715896,Cs1Mg1P1H12O10,mp-761178
2.7683,-2.33107631495635,Na4In2P2C2O14,mp-767521
2.4439,-3.0090637860714287,Li8Ti12Co4O32,mp-768110
1.1252,-2.194585528125,Li6Cr2O8,mp-770632
3.4433,-2.8280100200000007,Gd2As2O8,mp-776200
4.5168,-0.350143270450625,B48H80C16S8Br8,mp-849797
7.8433,-3.3714089599180954,Pr2B4H2F20,mp-861500
5.3972,-2.8819669371733334,Yb2Cl4,mp-865716
1.3967000000000005,-0.4416665478238635,K3Bi1As6Se12,mp-865961
0.0411999999999999,-1.1974871883333336,Ho4As4Pd4,mp-8952
1.4047,-1.1261518734791671,K4Sn4S10,mp-8965
3.322,-1.9551966890567496,K2Se2O4F2,mp-9205
1.1208,-0.7030744212968751,K4Sb4Se8,mp-9576
0.9726,-1.0224063750000003,Zr1Sn1Pt1,mp-961713
2.5466000000000006,-2.2802858115561224,Sb2P2O10,mp-9750
0.2519,-1.301058113608,W2Cl8,mp-980949
3.3842000000000003,-2.323376923714,Tl2Ge2F6,mp-998711
2.3166,-2.1780350221174576,Rb1Y1S2,mp-999265
1.4893999999999994,-1.577204499821429,Sr4Bi2O1,mp-1025351
2.4540999999999995,-0.7208118196274995,Sr16Ge16N32,mp-1029497
1.6148000000000002,-0.6295353484809758,Na30W14N38,mp-1030704
2.0156,-0.9979562650897992,Cs2Au2S2,mp-1077383
0.6312000000000002,-1.9901413759374995,Gd2Zn2As2O2,mp-1078542
1.6401,-0.8027827650830146,Cs2Zr1Ag2Te4,mp-1078823
0.16679999999999984,-0.22232959274999972,K4Cd2Sn2,mp-1079679
3.9409,-3.05115613903,Tb2H2O4,mp-1079758
1.7561,-2.8562903436822227,K2Tc1F6,mp-1091363
1.2383999999999995,-0.046167757637931565,Rb2Pt1C2,mp-10919
1.6710000000000005,-0.902130104699174,Cs4Ge2Se6,mp-1102254
5.9708000000000006,-3.4423359592409533,Ba2B2Cl2F8,mp-1103527
3.2297,-1.862535749854335,Cs3Bi2Cl9,mp-1104268
0.07860000000000067,-0.6342493039999993,Ho4Ge10Ru6,mp-1105625
1.1494999999999995,-0.8735163781746027,Sr6Ga4P8,mp-1106227
2.3591,-1.4194154635413794,Cs2K1Sc1I6,mp-1112710
3.0499,-2.50162164999738,Cs2K1Gd1Cl6,mp-1113049
3.9431,-0.31440004205625577,Cs8Zn4H16,mp-1181768
4.144199999999999,-3.45351850025,Yb1Si1O3,mp-1187516
0.36790000000000056,-0.7363937434999996,Tb6Cu6Sb8,mp-1188547
2.1281,-1.7056530843692583,In2As2H4O10,mp-1188700
0.3048000000000002,-0.7539658549999999,Gd6Cu6Sb8,mp-1189617
0.601,-0.96224831575,La6Sb8Au6,mp-1190030
0.015200000000000102,-2.2084804554375013,Eu4Hf4S12,mp-1190059
2.7953,-2.4423996497916667,Gd2Zn1Te2S2O14,mp-1190458
0.21480000000000032,-0.7011674623611116,Lu4Cr4B16,mp-1190663
2.655,-2.5178984388541674,Ba4Co2Ge4O14,mp-1190827
0.8202000000000003,-1.126050766288695,Cs2Gd4Cu6Se10,mp-1190996
2.6941,-3.374217428522728,Sm6Sb2O14,mp-1191139
0.19960000000000025,-0.6944784336111111,Tm4Cr4B16,mp-1191371
4.4976,-2.6507397400454553,K2Zn2B6O12,mp-1191459
1.6247,-1.1116026422968748,K4Ba4As4Se12,mp-1191826
2.4538,-2.1790220034637278,Mn3Te1P2Pb3O14,mp-1192249
5.3305,-2.0967568859127708,Cs4H4S4O16,mp-1192419
2.5703,-1.2015692187682765,Cs2Sn1H6O12,mp-1193049
4.1136,-2.553919861977048,K2In2B2P4H2O18,mp-1193408
1.3142999999999998,-0.9577757567266668,Ga8Sb16Te16Cl32,mp-1194704
4.2814000000000005,-2.5877751916052176,K4Zn4As12F72,mp-1194994
0.044599999999999966,-0.005218588015872732,Sr38Li88,mp-1195042
1.0992000000000002,-0.19842023861290345,K28Zn2Ge32,mp-1195294
1.3919,-3.038651727714285,K8Ce4P8O32,mp-1195550
2.5056,-2.315326359326924,Nd4V8I4O36,mp-1196001
3.2508,-2.9555771063157894,Ba2Al8Sb4O24,mp-1196877
2.7019,-2.1592585368939394,Cd6B8Pb6O24,mp-1196945
2.617,-1.4902954042522327,Fe4Bi4Se12O36,mp-1197024
2.3129,-0.4532047007440478,Cu4As48P16S48Br4,mp-1197719
1.0519000000000005,-1.2484304212500004,Sr12Bi24S48,mp-1197827
5.518599999999998,-2.013070252354616,B12H16N4O20,mp-1200137
2.7432000000000003,-1.9117559820150865,Cs12Sb4O16,mp-1201472
4.252000000000002,-3.0747785049553573,Sr8P4I4O16,mp-1202046
0.7047999999999996,-3.9935712257607134,Eu32Al32F160,mp-1202507
2.6091,-1.6947669450775855,Cs8Te16O36,mp-1203081
0.05909999999999992,-1.0908069523469397,Lu20Os5I24,mp-1203152
0.30490000000000017,-1.56850879958014,Cs4Ba2Ta12Br30O6,mp-1203665
3.1081,-3.0115972766346166,La12As8Br4O28,mp-1203678
0.19450000000000056,-2.9252212146428582,Li2Ce2P8O24,mp-1205078
1.7092,-1.9601513867268057,La8Se6N4,mp-1205351
3.2869,-1.8060425102636108,Zr4S4Cl24O4,mp-1205421
2.1224,-3.629842680682223,Na2Ce1F6,mp-1205754
0.15200000000000016,-1.9524151842258333,Ag1Pb1F6,mp-1206101
0.14069999999999985,-0.6175151979999999,Yb1Cd2As2,mp-1206487
0.17189999999999994,-0.6568400733333336,Er1Ni1Bi1,mp-1206712
1.0392,-0.2871137262499999,Rh2I6,mp-1206891
0.5607000000000002,-1.4901718290712498,Gd1H1Se1,mp-1207092
0.22270000000000006,-0.2847179063333333,Zr6Zn23Si1,mp-1207426
3.434,-2.6568525381250008,Y8Ge8Bi8O40,mp-1207680
2.9331,-2.229486036111112,Sc2Bi6Mo4O24,mp-1209046
1.2634,-1.7420277444721843,Rb2Tc1Cl6,mp-1209302
4.8549,-2.529572105561207,Rb8Sm4Cl20,mp-1209521
3.716600000000001,-1.9806766690987976,Rb8Ni8S12O48,mp-1209582
2.9011,-2.6069115142045467,Pr4Ga4Ge8O28,mp-1209621
4.6227,-2.5423115099499998,Na2Pr2C4O12,mp-1210097
3.3477999999999994,-3.3149569145682216,Na8Ca2Zr4Ti2Si8O32F4,mp-1210416
1.8286,-2.5807472675433334,K4Co4F16,mp-1211851
3.0998,-1.5253769430100002,Li12Lu4N24O72,mp-1212270
0.020500000000000185,-0.30551059166666644,Dy16Cd4Ni4,mp-1212922
3.0455,-2.5162258791666665,Er2Tl2W4O16,mp-1213014
0.9602999999999996,-1.1492404896618036,Cs2Tb2Nb12Br36,mp-1213369
0.5471999999999997,-1.3294332136646905,Cs2Ho2Mn2Se6,mp-1213649
4.0246,-2.653266458433908,Cs1Er1Mo2O8,mp-1213682
2.0987000000000005,-1.5441305840948285,Cs4Pb4O6,mp-1213706
3.0598,-2.684452465900278,Cr6B14O26F2,mp-1213769
0.003899999999999793,-0.7922460703571436,Ce4Al18Rh6,mp-1213916
4.9712,-2.5663743420267244,Cs8Er4Cl20,mp-1214000
2.5469000000000004,-3.534864899728261,Ba10Lu4Zr2Al4O26,mp-1214534
0.8792999999999997,-1.6629142709765632,Yb8Sn4S20,mp-1216061
1.4734000000000007,-2.2872635241468267,Ti2Sb2Pb4O13,mp-1217219
1.6997,-0.7365580769140632,Ta1Cu3Se2S2,mp-1218032