band_gap,formation_energy_per_atom,full_formula,task_id
0.0,0.0,Au1,mp-81
3.3343999999999996,-3.0066644911249996,Na2Nd2O4,mp-8128
0.0,-0.6073086806666673,Ca2B4Rh4,mp-8431
0.0,-0.8630656540476185,Ca2Cu2P2,mp-8432
0.0,-0.5989576415000002,Sm2Ni2Ge6,mp-8466
0.9958999999999998,-2.3113502029314286,Mn9Zn6Si4Sb2O28,mp-850230
0.0,-0.5873100088333338,Sm4B16,mp-8546
0.0,-0.45873095583333434,Ti2Al1Tc1,mp-861637
0.9415999999999998,-0.9104298086375003,K2Pt1Se2,mp-8621
0.0,-0.25333366499999954,Sc2Cu1Tc1,mp-862376
0.0,-0.30311354270833313,Pm1In1Cu2,mp-862916
0.0,-0.2624231162499999,Pm2Mg1Al1,mp-863698
0.0,-0.56518441375,Tb1Cd1Rh2,mp-864615
0.0,-0.8829893949999992,Hf1Mg1Rh2,mp-865050
0.0,-0.7928051862499998,Hf2Os1Rh1,mp-865131
0.0,-0.3415763929166671,Tm2Ag1Os1,mp-865279
0.0,-0.33152894874999905,Tm2Cu1Os1,mp-865306
0.0,-0.7682539033333337,Pr2Si2Ru2,mp-8654
0.0,-1.1286056068749994,Yb1Pm1Pt2,mp-865903
0.0,-0.6829237043749998,Yb1Pm1Rh2,mp-865905
0.0,-0.7597229175000004,Be1Al1Ir2,mp-865966
0.0,-0.6230644425000005,Yb1Tl1Pd2,mp-865999
0.0,-0.538260844999999,Mg1Ta1Ir2,mp-866075
0.03039999999999976,-0.7414344034759999,Sr4Ga2Ge2N2,mp-867219
0.0,-0.5411792674999996,Sc2Cu1Au1,mp-867756
0.0,-0.45135529291666643,Ta1Ti1Re2,mp-867846
0.0,-0.4143990312499999,Ca2Tl1Cd1,mp-867849
0.0,-0.44117995312500025,Sm2Al6,mp-867870
1.2134999999999998,-1.8238897755357135,Ca4As2O1,mp-8789
0.0,-1.6081655810714284,La6Te8,mp-879
0.8392999999999999,-0.40322236720000004,K4Ge2As4,mp-8930
0.548,-1.5233810369479173,Na2Zr2Cu2S6,mp-9107
0.0,-1.1954420841666658,Sc4Si4Pt4,mp-9225
3.8750999999999998,-2.4342104394300006,Sm2C1N2O2,mp-9499
0.0,-0.3937091524999996,V2Rh2,mp-971751
0.0,-0.6708997254999993,Sm1Co1Si3,mp-972659
0.0,-0.4091025318750001,La1Tl1Hg2,mp-972971
0.0,-0.17479152642856985,Hf18Co2Mo8,mp-973612
0.0,-1.4556039323189658,Rb1Bi1O3,mp-975384
0.0,-1.2102024421488105,K1Ti5Se8,mp-976257
0.0,-0.4617997156944445,Yb4Fe4B16,mp-977395
0.0,-0.8201364941666665,Li1Ti1Pt2,mp-977440
0.0,-1.2140626674999995,Yb1Lu1Pt2,mp-981512
0.0,-2.280616683789063,Ce8Hf4S20,mp-985298
0.0,-0.07625139111111068,Al2Ag4,mp-985805
4.244000000000001,-1.312394654931428,Si6N8,mp-988
0.0,-0.9955942156250002,Ba10Sb6,mp-9909
0.0,-0.6992401718750001,Ni1Au1O2,mp-997167
2.208,-1.763816383024966,Rb2Sn2Cl6,mp-998611
0.0,-0.4714468241666667,Ti1Ga1Fe1Co1,mp-998964
0.0,-0.5220212133333337,Li8Ce8Sn8,mp-1006328
0.0,-0.9029933325000004,Tm2Au2,mp-1017507
0.0,-1.1542994241666662,Sm2Sb2Te2,mp-1019138
4.6759,-2.172820365277777,Ba2S8O26,mp-1019557
0.0,-2.8937454352564105,Eu8Ge4B8O32,mp-1019739
4.0962,-2.8166143186904757,Sr2Ge2P4O16,mp-1020628
0.0,-0.3753259383333332,Lu2Zn4,mp-1024948
0.0,-0.2435996299999997,Yb1Mg1Cu4,mp-1025021
0.0,-2.5122189522070935,Rb2Cu1F4,mp-1025177
0.0,-1.3038605401783334,Ti4Ga2N2,mp-1025550
2.9561,-2.2955438597222226,Sr1Ge1Te1O6,mp-10341
0.0,-0.24086749000000013,Er2Mg2Ru1,mp-1070135
0.0,-0.2722502272222223,Y1In1Cu4,mp-1071645
0.0,-0.8143156472222218,Gd1In1Pt4,mp-1072097
0.0,-0.39631188750000135,Sc1Ni4Au1,mp-1072255
0.0,-0.8439350591666658,La2Ge2Ir2,mp-1077512
0.0,-1.1073129691666672,La2Ge2Pt2,mp-1077797
0.0,-0.4987556390000002,Ce2Ni4Sn4,mp-1078794
0.0,-0.7126652227777773,Li3Dy3Ge3,mp-1079394
0.0,-0.7803362083333335,Pr3Al3Pd3,mp-1080703
0.0,-1.173446122857143,Yb8As6,mp-1098
0.0,-0.3925608388888888,Gd3Mg3In3,mp-1101056
0.0,-0.28868632458333465,Pr3Ni9,mp-1102445
0.0,-1.0701762441666673,Y2Si4Rh6,mp-1102541
0.0,-0.5539537885714293,Tb3Ga8Au3,mp-1104310
0.0,-0.2513455180769236,Ho1B12,mp-1104585
0.0,-0.25134232923076966,Tm1B12,mp-1104905
0.0,-0.4355388211111115,Ce4Al2Ge12,mp-1105912
1.2772000000000001,-2.2703040519806663,K2Ag1Rh1F6,mp-1111950
2.782,-2.4736967871973796,Cs2Li1Gd1Cl6,mp-1112624
2.6733000000000002,-1.4139090301954023,Cs3In1Br6,mp-1112651
2.8918,-1.269522004541379,Cs2K1As1Br6,mp-1112792
0.41849999999999987,-0.8871780398571426,Ca3P6Ir6,mp-11168
0.0,-0.25820435083333254,Mn4Be8,mp-11270
0.0,-0.4709417779999999,Ca6Hg4,mp-11288
0.0,-0.2311773575,Ta1Co3,mp-11358
0.0,-0.18209877500000005,Tb1Cu5,mp-11363
0.0,-0.5779070750000002,Pr2Ga2,mp-11404
0.0,-0.5628371142857144,Y4Al18Co6,mp-11486
0.0,-0.020409948749999796,Mn1Zn3,mp-11504
0.0,-0.41796914136363644,Pr2Zn6Ge3,mp-11666
3.8625000000000003,-3.029576947,K1Sm1O2,mp-1178133
0.0,-0.5535283015624994,Sm10Pb6,mp-1179514
0.0,-0.38765918,Be2Ir1Ru1,mp-1183419
0.0,-0.16918266175000127,La8C12,mp-1184
0.0,-0.2110982650000004,Li1Gd2Al1,mp-1185392
0.0,-0.317350363333333,Lu1Mg1Ag2,mp-1185500
0.5261,-0.014448265333333174,Mg149Be1,mp-1185586
0.0,-0.03606405999999988,Mg2Pb4,mp-1185955
0.0,-0.5579269137500003,Pm1Nd1Ir2,mp-1186617
0.0,-0.29669514645833406,Sm1Gd1Ag2,mp-1187078
0.0,-0.2779610629166651,Ti1Re2Mo1,mp-1187511
0.0,-1.1849103975000004,Yb1Dy1Pt2,mp-1187563
0.0,-0.434346064583333,Zn1In1Rh2,mp-1187922
0.0,-1.4782971824374997,Nb6Cr2S12,mp-1189260
2.2482,-1.1887205745312501,Li4Cd2Ge2S8,mp-1189383
0.0,-0.9889769622222223,Tb6Ge6Pd6,mp-1189420
0.0,-2.801248711249998,Eu4Cr4O12,mp-1189762
0.0,-1.1852975731249993,Tm4Si4Pt8,mp-1190240
0.0,-2.4405129782500006,Li2Eu4Ir2O12,mp-11903
0.0,-0.6236610031944446,Y4B16Ru4,mp-1190832
0.0,-3.0973870289772734,La6Ir2O14,mp-1191066
0.0,-0.5223182693939395,Tb10In8Ni4,mp-1191784
0.0,-0.5978284073015873,Nb7B8Ru6,mp-1191941
0.0,-0.5830634940277785,Tb4Re4B16,mp-1192121
0.0,-0.6091833256971435,Ta16Co8N4,mp-1193305
1.9204999999999997,-1.0130331530561227,K4Sn4P4S16,mp-1193412
0.0,-0.4671873135714288,Nd4Ga18Co6,mp-1193443
0.0,-0.4864222696428574,Dy4Ga18Co6,mp-1193482
0.0,-1.8334377258166663,K6Na2Os4O18,mp-1194433
0.2839999999999998,-0.40411010541015635,Tl16Pb4Se12,mp-1195087
3.7965999999999998,-3.0153615090476187,Sr10V6Br2O24,mp-1195674
2.8968000000000003,-1.2138832502710455,Rb12Ni8N28O84,mp-1196286
1.4760999999999997,-1.1673078396546155,Ga32Sb28Te32Cl116,mp-1197560
2.5942,-2.063620806269231,Sr10Sb44O76,mp-1197996
4.241099999999999,-1.7370419139687505,Li4Ga4Se8O24,mp-1198930
0.0,-0.7733474750000003,Y22Sn20,mp-1199133
0.0,-0.257383647427536,La2Ti4Al40,mp-1200087
2.2876,-1.7535178549452635,Ba8H32Pt4O32,mp-1200998
0.0,-0.26616353169999996,Sm6Zn44,mp-1201457
1.5438000000000005,-1.642630700528889,Dy16Te12N8,mp-1201962
0.0020999999999999908,-3.371942380463917,Yb8Ta50O136,mp-1202362
0.0,-1.7018884460491073,Cu8P4O20,mp-1203235
1.9047999999999998,-1.1741712749460778,Rb12In2P6S28,mp-1204523
1.201,-0.4919927709950741,Rb4P4Pd2,mp-1205714
0.0,-0.7367050268749997,La2Co2Si4,mp-1206651
0.0,-0.6654993372222222,Y3Cd3Au3,mp-1206674
0.0,-0.42360690950000046,La1Al2Si2,mp-1206998
0.0,-0.3709364600000001,Sr1Al2Ga2,mp-1207102
0.05830000000000002,-0.69095096204,Yb6Sn2H4,mp-1207571
0.0,-0.7912002089655169,Yb3Si6Pd20,mp-1207621
0.0,-0.4113118010000001,Y24Al14Si2,mp-1207790
0.0,-0.998756990277778,Tb12Si12Pd12,mp-1208374
0.0,-0.6758495274999997,Sm4Ga18Ir6,mp-1208926
4.724,-2.978472514308586,Rb3Ho1P2O8,mp-1209402
1.9535999999999998,-2.863617355250001,Pr4Mg2Pt2O12,mp-1209742
0.9781,-1.839583010451607,Pr12Se12N4,mp-1209746
0.0,-1.6747124860204086,Pr12P4Br12,mp-1209777
0.0,-0.3981984612500001,Nd16Cd4Pd4,mp-1209976
3.0906,-3.384536869,Pr12Lu8Ga12O48,mp-1210514
0.4164000000000003,-2.0977797135416676,Li8Tc4O12,mp-1210877
0.9725000000000001,-1.9489704704419992,Li2Mn4Te2O12,mp-1210977
0.0020999999999999908,-0.11328611220512877,K6Na14Tl18Cd1,mp-1211804
0.0,-0.2892075321839082,K5In4Ge6As14,mp-1211883
0.0,-0.6024983456944449,Ho4Co4B16,mp-1212117
1.7627000000000002,-2.967374397916666,Gd6In6O18,mp-1212640
0.0,-0.7108763900000002,Dy4Ga18Rh6,mp-1213121
0.0,-2.9664845914772737,Eu12Mo4O28,mp-1213342
0.0,-0.5827787057894743,Ce6Al24Os8,mp-1213926
4.016299999999999,-2.730465228556599,Ca4P6Pb6Cl2O24,mp-1214153
0.0,-1.0527754792857142,Ba8As6,mp-1214488
2.4673999999999996,-3.533452195182223,Ba8Na8V8F48,mp-1214563
0.0,-0.9472782808333337,Yb7Mg1Pt4,mp-1215613
0.0,-0.006157813333333095,Yb2Ru1,mp-1215845
2.4375999999999998,-2.116742770294643,Y18Al10S42,mp-1216384
0.0,-0.5359451016666661,Tm1Al1Ni4,mp-1216573
0.0,-1.420545366440973,Ti1Se1S1,mp-1216698
0.0,-0.7822023321031742,Tm5P12Ir19,mp-1216942
0.0,-0.7977547412500003,Tb4Cu2Pt2,mp-1217701
0.0,-0.2494815957466668,Ta1V1H4,mp-1217816
0.0,-1.0948122273809524,Sr1P1Pt1,mp-1217967
2.4463999999999997,-1.3848384226939658,Rb1Li1Zn1S2,mp-1219554
0.0,-1.2629176079128863,Rb2Ir12O24,mp-1219790
0.0,-0.25683894142857205,Ni32Sn24,mp-1221030
0.0,-0.4528501244039352,Mn2In2Se5,mp-1222074
2.9034000000000004,-2.5081934653296716,Mg2Co4P4O16,mp-1222089
0.0,-0.23888890031250032,Mn4Ga3Co8Ge1,mp-1222222
0.0,-0.8790007165965913,K4Ta6Se12,mp-1223811
0.44209999999999994,-1.486413765833334,Co2Te2O8,mp-1226075
0.23649999999999993,-0.5820186244684966,Cs6Sb10Se18,mp-1226687
0.0,-0.30189363444444456,Ca2Bi4Au12,mp-1227488
2.1370999999999998,-2.4903425412,Bi1Sb3F20,mp-1227565
1.1844000000000001,-2.6466453915277777,Ba8Sr4Dy4Co8O30,mp-1228722
0.2171000000000003,-0.24640538083333396,Al1Re1Ge1,mp-1228817
6.1166,-1.8848439415692855,Al2H30O12F12,mp-1229104
1.9153999999999998,-2.897356835357143,Ba12Gd2Re6O36,mp-1229259
0.0,-0.6211869969909081,Sr6Fe6N10,mp-1246649
3.1723,-3.0417537008403372,Zr8Mo4P8O48,mp-12540
0.0,-1.47863195232143,Nb6S8,mp-12627
0.0,-0.7852198192857145,Ca6Au8,mp-12699
0.0,-0.49147414375000054,Mg2Pd6,mp-12742
0.0,-0.14140856166666657,Cr1Te4Au1,mp-12743
0.0,-0.1282414915217388,Tb2Zn40Fe4,mp-12817
0.0,-0.18771953333333316,Yb2Mg4Cu18,mp-13227
0.0,-0.2498152780769229,Zn22Rh4,mp-13448
0.3370999999999995,-2.186034053541668,Nd4S8,mp-13568
0.0,-0.10081150384615366,Zn16Cu10,mp-1368
0.8241999999999998,-0.9770974179166659,Ba32Ge8As32,mp-14002
0.0,-0.020867646923077333,Fe7W6,mp-1473
2.7096999999999998,-2.2508630134062506,K1La1S2,mp-15781
0.0,-0.5449619499999999,Ho2Al8Ni2,mp-16504
0.0,-0.323896603,Lu12Al8,mp-16508
0.0,-0.5325217341666667,Tm2Al8Ni2,mp-16518
0.0,-2.421792428166666,K2Yb2W4O16,mp-17870
0.9992000000000005,-0.3681345390714285,K16Al16Sb24,mp-17886
0.0,-1.2857366339019098,Ce6Si2Ag2Se14,mp-18071
5.6663,-2.684256447789153,Rb4Dy4S8O32,mp-18109
0.0,-0.4059228159090903,Pr4Zn6Ge12,mp-18209
7.0611999999999995,-4.326941471421429,K2Er6F20,mp-18451
3.2576,-2.8533160334999996,Na4Gd4Ge4O16,mp-18547
0.0,-2.6426209519166663,Ba6Y2Ru4O18,mp-18701
1.6688000000000005,-1.6877451585416665,Cr1Ag1O2,mp-19378
2.465,-3.015597484013824,Ti4Mn1P6O24,mp-19383
2.0589999999999997,-3.248390630726053,Ba5Gd8Mn4O21,mp-19485
0.0,-0.468173843888889,Pr2Ag2Pb2,mp-19712
0.0,-0.41578792333333403,Tb3In3Cu3,mp-19782
0.0,-0.6081563383333327,Ce2Fe2Si2,mp-20245
0.0,-0.41454316250000023,Gd1In3,mp-20258
0.0,-0.3880456518055553,La2In8Ni2,mp-20303
0.056699999999999307,-0.636409585,Gd2Cu2Sb4,mp-20502
0.0,-0.5070082409999997,Ce1Fe1Ge3,mp-20722
0.0,-0.6825274728571429,Eu1P2Os2,mp-20802
0.0,-0.9135005068750006,Er4Ge4Pd8,mp-20819
0.0,-0.7263511696666669,V6B4,mp-2091
0.0,-0.6796329447499992,Sc3Pb1C1,mp-21035
0.0,-0.1865588883333326,Zr2Mn4,mp-2116
0.0,-0.902639110833333,Sr4Ge4Pt4,mp-21164
0.0,-0.11206077174999933,Mn3Ga1C1,mp-21313
0.0,-0.5341180058333315,Mn4Si4Ir4,mp-21851
0.0,-0.7855256391666666,Nd3In3Pd3,mp-21887
0.03310000000000013,-0.46265245888888984,Gd1B2Ru3,mp-22335
0.0,-2.36250024725,Sm4Ni4O12,mp-22495
0.0,-0.7320156563392867,V3Se4,mp-22700
0.0,-0.3167701876470592,Sr1Sb12Ru4,mp-22775
2.9251000000000005,-2.0305042193749996,La2Br6,mp-23263
0.0,-0.47815001499999976,Dy1Hg1,mp-2443
3.6628000000000003,-0.7362737113541663,B12S12Br12,mp-27245
4.4528,-1.5751650461345719,P4Cl12O4,mp-27277
0.0,-2.3590376687139996,Nb1Hg3F6,mp-28357
0.0,-1.210092102058824,Y6Os1I10,mp-28863
0.0,-0.2752523197222227,B4Pd4Ir4,mp-28897
4.9813,-2.519384876256667,Na2Er2Cl8,mp-29083
4.1644000000000005,-2.307397240608,Hf2Cl8,mp-29422
0.0,-0.4130473394444441,Ho3In3Cu3,mp-3015
4.1796999999999995,-2.081131040948,Mg1H2O2,mp-30247
0.0,-0.4163073822222224,Ho6Fe1Bi2,mp-30328
0.0,-0.13323249999999964,Be4Au4,mp-30365
0.0,-1.0280999100000006,Dy1Si2Rh3,mp-30621
0.0,-0.3591107191666663,Nd2Zn4,mp-30800
0.0,-0.756136753095238,Sc2Ni12P7,mp-3084
0.0,-0.04610094388888876,V4Zn5,mp-30883
0.0,-0.742624703703702,Ce4B4Ir10,mp-30898
0.0,-0.8933827749999992,Ce4Si6Rh2,mp-31163
0.0,-0.44049139966666645,Pr1Si2Ag2,mp-31203
0.0,-0.29074083277777785,Li4In2,mp-31324
1.4545,-1.8664570843100006,K4Ta6Cl18,mp-31360
0.0,-0.7737409218749995,Tb4Ge8Pd4,mp-31436
0.0,-3.1294451641071426,Eu4P4O16,mp-3219
0.0,-0.362450667222222,Yb1B2Ru3,mp-3268
0.0,-0.7035863356896562,Ti6Si7Ni16,mp-3337
1.1637,-1.161287362193877,Ba8P5Br1,mp-34034
0.0,-1.1124631484999994,Sm1Si2Rh2,mp-3882
0.0,-0.5859379454545461,Er2Ni3B6,mp-4071
0.0,-0.811894115,Tb2Zr2Sb2,mp-4075
0.0,-0.3129618020633333,Ni8Mo12N4,mp-4091
0.0,-0.5840617622222221,Ho2Ag2Sn2,mp-4311
1.7277,-2.2473774500000006,Cd4Si2O8,mp-4530
0.0,-1.081100753999999,Y1Si2Ir2,mp-4653
0.0,-0.12358973999999989,Er2Fe4,mp-474
0.0,-0.6777739940000004,Dy1Fe2Si2,mp-4939
0.0,-0.3624150166071424,Ho2Mo2C3,mp-5051
0.0,-0.25334384166666624,Al12Fe4Si8,mp-505229
0.0,-0.6897072069444445,Lu8Fe4B24,mp-505545
0.0,-0.90207814625,Lu1Sn1Pd2,mp-5181
0.009400000000000297,-1.5075192083522735,Ta27S50,mp-530018
0.0,-3.90962704765,Yb4Zr12F60,mp-531533
2.8188999999999993,-2.9698230361224494,Al28Fe14O56,mp-531674
0.0,-2.9704544195833344,Yb2B2O6,mp-5364
0.0,-1.9220783890794204,Ti14Cl32,mp-540671
1.3839000000000001,-0.3814963992288305,Ta4Se34Br24,mp-541758
3.4757000000000002,-2.956777771391066,Cs8Ta6O19,mp-542069
0.0,-2.3542498278833337,Ba6Na2Os4O18,mp-542208
0.0,-1.6763988700000008,Eu1Te1,mp-542583
1.7271999999999998,-2.0770331867857132,Ta4Bi16Br4O32,mp-554207
1.6129,-2.859941321190476,Ba1Mo1P2O8,mp-555549
1.9094000000000002,-0.9531674872525551,Rb4Ag4Ge2S8,mp-555852
3.9959999999999996,-2.7589868049171438,Ba10As6Cl2O24,mp-556761
3.7138999999999998,-3.075307695527143,Tm4Mo4O16F4,mp-557086
2.801,-2.509950935766579,Ho11Te16Cl1O48,mp-557285
0.0,-1.4888889019318183,Hg4Sb4O14,mp-557697
0.0,-1.8277253532954554,Ba2Cu2Te4O14,mp-557735
0.0,-1.8005109530208339,Cu12Mo32Br8O92,mp-557905
1.4329999999999998,-3.379708401005626,La12Nb4Se8O16F8,mp-558478
5.392200000000001,-3.3966280759166674,Tm12B20O48,mp-558534
5.8336,-3.6253087568426436,Na8Sr8Al8P4O16F36,mp-558954
3.3851000000000004,-2.5944838660642873,K8V4P4O24,mp-558956
3.4183999999999997,-2.8356284204027777,K12Sm4B8O24,mp-559574
2.5583000000000005,-2.1619328728531815,Nd24Si8S48Cl8,mp-559779
0.9438,-0.9232119408854175,Au4Se6O20,mp-559824
3.895,-2.379098908179487,K16Zr2Mo12O48,mp-560406
3.9518999999999997,-3.5020991963488886,Ba4Li4Cr4F24,mp-560949
3.7904,-2.3654904241257575,B2Te6O6F30,mp-561226
0.0,-1.5537355609374996,Zr12O4,mp-561418
2.1768,-1.9276903557914282,Nb8Tl8Cl32O8,mp-561523
2.0774999999999997,0.0,C16,mp-568286
0.0,-0.2816198155555553,Yb1In1Cu4,mp-569661
1.9325000000000006,-1.429616858456,Mn4Tl4Cl12,mp-570300
0.012799999999999923,-1.1419209593548392,Pr12Fe2I17,mp-570462
2.5129,-0.9430743152533335,Sn4I4Cl4,mp-571146
5.887,-3.528009582857143,Dy2P2O8,mp-5767
1.2526999999999995,-1.103531345379604,Cs2Tm4Cu6Se10,mp-581749
0.0,-0.6835194370000004,Pr1Ni2Ge2,mp-5819
0.0,-0.8816095774999996,La2Ge2Au2,mp-610631
7.6455,-3.8909603824600003,Li2Ca2Al2F12,mp-6134
3.0289,-3.4554887783974357,Ba3Ta6Si4O26,mp-6169
0.0,-0.4508862633333335,Al1Cr3B4,mp-637575
0.0,-2.2029653765833332,Ba6In3Ir3O18,mp-638553
3.9568000000000003,-3.154817815337221,La3C3O9F3,mp-638731
0.0,-1.911937631339286,Eu4Lu8Se16,mp-645692
0.0,-0.909558275178572,Sr8P12Pd12,mp-649419
3.4494000000000002,-1.5763463424797557,K12Pr8N36O108,mp-649608
4.945,-3.446316489519231,Ca8Al16Si16O64,mp-6532
1.5506,-1.314863212394262,Cs12Nb8S44,mp-669313
0.0,-1.635679553969299,Ti6Ag1S12,mp-675920
0.0,-0.5288520228571437,Sm4In21Pd10,mp-680615
3.3919,-2.98109566341,Na8Li4Fe4Si24O60,mp-6838
0.0,-0.365883435625,Yb10Cu22Sn16,mp-683906
0.0,-0.2961186519999998,Sr1Al2Si2,mp-6931
3.2182,-1.8609822331458825,Na16Zn8Ge16H32O64,mp-699457
2.4457999999999998,-2.8094547643673473,Ba2Nb4Fe4P12O48,mp-705895
5.1135,-2.477586710034857,K4Zr4Zn2H24O12F24,mp-707219
3.0165,-2.5606703194508476,Mn9Al2Si8H8O32,mp-707875
0.0,-0.7828221883333342,Sc4Sb2,mp-7192
4.4143,-0.973275517589523,Zn4H48N12Cl20,mp-723044
0.0,-0.7069009277777761,Hf20Ge16,mp-737
0.0,-2.202085540714286,Sr2Cu1O4,mp-754322
0.0,-0.9759726327083342,Cr1S2,mp-755263
0.0,-1.1959051614283336,Ag1F1,mp-7592
2.4657999999999998,-2.5827621277835284,Na18Fe6P16O58,mp-761065
4.1163,-1.8398759005750003,K4Na2Zn4H10C8O28,mp-766427
2.3961,-1.7411785388082355,Zn2Fe4As4H4O20,mp-766713
3.7129000000000003,-2.813130057499999,Pr2As2O8,mp-768863
3.304,-1.8920126487307687,Na6Ni2As2C2O14,mp-770940
3.7019,-1.5600211572222227,Sr4I8O24,mp-771750
0.0,-0.5119383575,Lu12Ni12Sn24,mp-7736
2.3698,-3.110320315961428,Li8Ti12Mn4O32,mp-775865
3.6121,-3.354737704444445,Tm8W4O24,mp-778814
0.0,-0.2679414800000002,Ni2Sb2,mp-810
3.1087000000000002,-2.240653704375,Li4Zn2Ge2O8,mp-8184
3.1635999999999997,-1.6915242248697915,Ba2Al8S14,mp-8258
0.0,-0.9423973208571432,Sr1P2Rh2,mp-8581
0.0,-0.3583097666666668,Li1Tm1In2,mp-861665
0.0,-0.3847080143749997,Li2La1Pb1,mp-861893
0.0,-0.8277567499999998,Dy1Ga1Rh2,mp-862666
0.0,-0.45293160625000084,Pm2Cu1Ir1,mp-863665
0.0,-0.6062157124999992,Er1Cd1Rh2,mp-863739
0.0,-0.6303073625000004,Li1Mg2Pt1,mp-864614
0.0,-0.9154810200000001,Yb2Pd1Au1,mp-864800
0.0,-0.7880432774999999,Tm1Mg1Au2,mp-865225
0.0,-0.7082641350000003,Tm2Ir1Ru1,mp-865381
0.0,-0.58262248625,Ce2Au6,mp-865572
0.0,-0.4913153262500005,Ga1Si1Ru2,mp-865615
0.0,-0.36856127791666715,Ti1Nb1Re2,mp-865653
0.0,-0.6191730279166681,Ti1Si1Os2,mp-865680
0.0,-0.1229820325000004,Li1Sc2Tc1,mp-865936
0.0,-0.48605416374999955,Li2Eu1Sn1,mp-867474
0.0,-0.5946155016666665,Zr2Ge2Sb2,mp-9463
0.0,-0.35909369333333413,Mo1Pt2,mp-952
0.0,-0.7704037095000004,Ho4Co6Si10,mp-977345
0.0,-0.6239262374999996,Li1Mg1Pd2,mp-977399
0.0,-0.8407102037499996,Mg1Sc1Pd2,mp-977566
0.0,-0.5300491591666685,Sm2B4Ru4,mp-978771
1.9006999999999996,-0.9573826713392855,Tl4I6O18,mp-978990
0.0,-0.6466799549999998,Y8Au4,mp-979911
0.0,-0.875546071666666,Ho1Au2,mp-990
0.0,-2.7681172433925,Sr1Rh1F6,mp-9926
0.0,-0.7919311024999995,Pr2Au2,mp-999306
0.0,-0.5453240894444443,Tm6Ni14B4,mp-1005955
0.0,-0.11962299107142879,Zr18Co2Mo8,mp-1005986
0.0,-0.9575105148394767,Rb2Zr24Te32,mp-1006574
1.909,-1.754836536921875,K1Sm1Se2,mp-1006891
0.006699999999999484,-3.416105821578947,Tm5Re2O12,mp-10094
0.0,-0.9283720749999999,Dy1Bi1Pd1,mp-1009543
0.0,-0.756929803253333,Ca1N2,mp-1009657
0.0,-1.916890926329722,Ti2S2Cl2,mp-1013900
0.0,-0.27440079812500073,Ho1Fe1C2,mp-1018052
0.0,-0.8813893200000008,Zr1Te2,mp-1018107
0.0,-1.8746228665312499,K1Eu1S2,mp-1018137
4.222099999999999,-2.6377705302280696,Na24Zn8B40O80,mp-1020160
0.0,-0.6257218254831943,La1P12Os4,mp-1021506
1.9130000000000003,-2.108671784145834,K8Sn12O28,mp-1024073
0.0,-0.8218889533333341,Pr2Ni2Sb2,mp-1024955
0.0,-0.7159613472222226,Yb1B2Rh3,mp-1025051
0.0,-0.49296103833333405,In1As1Pd5,mp-1025293
0.3495999999999997,-1.7886414507733335,Ca3Hf3N6,mp-1029359
0.0,-2.7945307712500003,Ba4Sc2Ir2O12,mp-10302
0.0,-2.1116145189236115,Ba2Ce4Mn2S10,mp-10502
0.0,-0.19653562937500002,Yb1Co1C2,mp-1067743
1.2448000000000001,-1.1685605708250002,K2Pd1S2,mp-1068941
0.0,-0.2228783814760007,Zn1Ni3N1,mp-1069270
0.0,-0.7245486204999999,La1Si3Ru1,mp-1069594
0.0,-0.9787560569999997,Ca1Si2Rh2,mp-1069956
0.0,-0.23972688572916687,Ni2Se4,mp-1071078
0.0,-0.5505865166666665,Tb2Mg2Sn2,mp-1071468
0.0,-0.2838043227777778,Pr2Ag4,mp-1072619
0.0,-0.38227035250000024,Lu1Cd1Ni4,mp-1077095
0.0,-0.5124765997321431,Tl2Rh3S2,mp-1077922
0.0,-0.3269326009999993,Si6Ni3Au1,mp-1078240
0.0,-0.3485533849999996,Sr2Sn4Hg4,mp-1078257
0.0,-0.4596803103333329,Ce1In7Pt2,mp-1078439
0.0,-1.0754720556250006,La2Te6,mp-1078612
0.0,-0.6220978505555566,Er3Al3Ni3,mp-1078826
0.0,-3.0903939972499996,Ba2Nb1V1O6,mp-1078969
0.0,-0.5391829224999993,Hf2Cu2Si2As2,mp-1079332
0.0,-0.5703875016666672,Er2Ni4B4,mp-1079335
0.0,-0.5608130826666666,Dy2Ni4B4,mp-1079900
0.0,-0.7674947987499996,Lu2Cu2As4,mp-1079944
0.0,-1.0466967362499995,Al4Pt4,mp-10904
0.0,-0.5832825199999997,Pr4Mg4Sn4,mp-1102281
0.9359999999999999,-0.6868526237351192,P4Os4S4,mp-1102534
0.0,-1.2075050999999999,Er4Si4Pt4,mp-1102879
0.0,-0.7746126716666666,Ce4Sb8,mp-1102986
0.0,-0.8631959891666661,Y4Ga4Ir4,mp-1103280
0.0,-0.6371699025000002,Tb4Ga4Ni4,mp-1103670