band_gap,formation_energy_per_atom,full_formula,task_id
2.1830000000000003,-0.7473026727475649,Tl4Bi4P8S28,mp-556665
1.7928999999999995,-1.820740209869792,Y6Cu2Ge2S14,mp-556781
4.8087,-3.0914667656093746,K8Be8Si12O36,mp-557472
3.5744,-2.8637400521424983,Mo2F6,mp-557539
4.0938,-0.9279596409639168,Rb4Bi2Cl10O40,mp-557599
4.8228,-3.286851761631945,Ca2Al4B4O14,mp-557689
2.6828,-1.962625886295456,K2Ga2As4O14,mp-557918
4.5892,-3.135575022293437,Li2La4S4O16F6,mp-557969
2.7153,-2.749048462608571,Ho2Mo2Cl2O8,mp-558005
3.9994,-2.475622476202381,K4Li8B4O12,mp-558628
3.6597,-2.957795337358572,K4V4O4F16,mp-558666
3.7653,-2.817268455361112,Na12Nd4B8O24,mp-558805
2.9145,-2.2629016127233337,Ho4Te8Cl4O20,mp-558875
2.7817000000000003,-2.474340549028251,Gd6Se8O24F2,mp-559447
2.5081999999999995,-1.249078031789773,Li20Sb4S12I8,mp-559814
3.4371,-1.5697591765067267,In4H4Se4O16,mp-560404
1.7412,-1.9224875648697919,Tb6Si2Cu2S14,mp-560501
3.3618,-2.7610024072705954,Cs2Na2Ti2O6,mp-560791
1.7298,-2.504485773149524,Ba10Mn6Cl2O24,mp-560883
1.7989,-1.5325352735929998,K8Ru4N4Cl20O4,mp-560966
2.5594,-2.8411426998023805,Na8Ca4V4P8O36,mp-561006
1.4756999999999998,-1.9971860858928576,Nb4Bi16Br4O32,mp-561382
0.3660000000000001,-1.4615983444252874,Cs4Ir1O4,mp-561672
0.7322999999999995,-0.886985890777244,Tl2In10S14,mp-562480
0.6494999999999997,-0.3320321174218752,Tl4Sb4Se8,mp-567318
1.9983,-1.5242703982208623,Cs2Sb2Cl12,mp-567583
0.34670000000000023,-0.4636802199999999,Hf2Ge2Te8,mp-567817
4.1001,-1.1139590891666664,Al4Tl4Br16,mp-567878
1.1376999999999995,-1.0047689734635412,Er4Cu4Pb4Se12,mp-567983
0.7081999999999999,-0.6763865600689656,Rb2Au2I6,mp-568666
0.3412000000000006,-0.3690639522851562,Co8Sn12Se12,mp-570152
0.3776999999999999,-1.3007253660000004,La2Ge1I2,mp-570597
0.11840000000000027,-1.0702096882558505,Cs2Zr7C1I18,mp-571150
1.7916,-1.2255238046312258,Cs36Au12O24,mp-572441
1.0410999999999997,-0.2257615852380955,In4Te10,mp-582549
1.0560999999999998,-0.6593807355555561,Ti1Co1Sb1,mp-5967
4.480099999999998,-0.7151983622248492,Cs4C4S4N4,mp-614311
0.9886,-0.9580808942517004,Ca12In4P12,mp-614572
2.2809,-0.31607198352452115,Cs6H10Pd2,mp-643006
1.4456000000000002,-0.5090551133224241,Ca4Mg4Fe3H22,mp-644264
2.305,-1.8828568726215291,Tl2V6Se4O24,mp-645272
0.3422999999999998,-2.23979678990302,Gd20S38,mp-646008
6.8575,-3.4661449947639995,K2Na1Al1F6,mp-6586
0.07869999999999999,-2.8835815657499997,Ba2Er1Ru1O6,mp-6621
4.7937,-3.2441222720775866,Cs4Zr2Si6O18,mp-6694
7.0872,-3.4711417583890003,Na12Li12Al8F48,mp-6711
1.4823000000000002,-1.2566100601037566,Rb12Ta8S50,mp-680284
0.6821000000000002,-1.5775065233333332,Co14Sb4O24,mp-685142
2.1032,-1.9542971530266664,Ba2Sn4H4O8,mp-696946
4.7942,-3.722049009204546,Er2Si2O7,mp-7064
4.1777000000000015,-0.6193589655741234,P8H48S8N24,mp-707324
3.5177,-1.2417270695573748,H32Se8O40,mp-720376
1.7129,-1.2361993115813572,Cs2Sm2Hg2Se6,mp-7212
1.3996000000000004,-2.5804640295231254,Ca4Fe12Si8H4O36,mp-721924
5.7483,-2.709154736059612,Ba1Si1P4H2O14,mp-722278
3.4121,-1.7232407011365,Ca16H48N16O80,mp-722900
0.3060999999999998,-1.1738546894889166,Rb1Cr5S8,mp-7295
2.6274,-1.6825458720326671,Na2As6H4O18,mp-730154
1.7469,-1.7351438458783786,Fe8As20Pb2O44,mp-735662
2.3786,-2.7797767834127005,Zr2Fe2P6Pb2O24,mp-743600
1.5542,-1.7058980551999994,K8Sn4O8,mp-752692
3.4617000000000004,-2.985177672916668,Ho2I2O2,mp-753173
3.0732,-2.9899171471425,Li1V1F6,mp-753571
2.1143,-3.1655398802377785,Li4V2F12,mp-753861
3.2297,-3.755879727142857,Ba4Tm8O16,mp-754599
2.049200000000001,-1.5403461852651523,In4Pt4O14,mp-755116
2.0286,-2.150606640277778,V4Co2O12,mp-755622
2.7268,-2.5301714011352847,Cs4Fe4B4P8H4O36,mp-757463
4.753,-1.7760519672917183,Be4H8Se4O16,mp-757836
4.0956,-2.5621315641874998,K8Li4Nb4O16,mp-759900
1.4119000000000002,-2.003108173571111,Li2Ag2F8,mp-765559
2.5531,-1.2899945154166668,Sb12Br12O12,mp-768372
3.1062000000000003,-2.7023944515,Lu6Sb10O24,mp-768483
0.4083,-1.778860678658088,Co4S6O24,mp-768501
2.8847,-3.23813790725,Lu6Ga6O18,mp-768505
2.5217,-2.9000380786134445,Ti3P6W1O24,mp-775198
2.6618000000000004,-0.8246504149399998,Ca2Ge2N4,mp-7801
4.176399999999999,-2.8747511959523813,Ba24Ge12O48,mp-780263
1.0810000000000004,-0.9477607140000004,Ba1Mg2As2,mp-8280
0.7040000000000002,-0.8838240510000006,Ba2Yb2Cd2Sb4,mp-865143
4.5230000000000015,-2.513588260952381,Li1Ge1B1O4,mp-8873
3.0692,-3.2084262554335723,Ba8Gd4C8O24F12,mp-8986
0.4597000000000007,-0.5280382072222226,Ti1Ni1Sn1,mp-924130
4.3926,-3.1901208362500006,Lu2Br2O2,mp-973981
4.3594,-2.8845133942083336,Na8Zr4O12,mp-990440
2.5421000000000005,-1.3760008836226667,In2Pb2Cl6,mp-998512
1.1738,-1.3230390292499994,Na1Sm1Te2,mp-999447
1.8635,-1.7000841229218748,Na1Dy1Se2,mp-999488
3.5957,-3.4203158065642856,Ca2Fe2F10,mvc-14316
0.9380000000000006,-1.2881121666071431,Mg2Cr4S8,mvc-91
4.5196000000000005,-3.311726499759615,Ba12Y8B24O60,mp-1019527
4.2027,-3.170608976391027,K8La8B8O28,mp-1019777
1.5914,-0.6062918886681079,Rb30W14N38,mp-1029967
0.07059999999999977,-1.0145061761552772,Ca54Re18N72,mp-1030245
0.05840000000000022,-3.703823610657896,Tm6Re1O12,mp-10342
0.8909999999999998,-0.8624526175754312,Rb2Pd1Se2,mp-1069771
4.3169,-2.109686025,Yb2Br4,mp-1071541
1.5449,-3.0033827198600003,K2Na1Mn1F6,mp-1079339
1.2143000000000002,-0.5412598849780004,Te12Ir2Cl6,mp-1105647
1.3384000000000005,-1.8990785221562505,Y8Se12,mp-1105821
5.0952,-2.427658937556,K2Li1Lu1Cl6,mp-1111126
2.8942,-1.255756214775862,Cs2Rb1As1Br6,mp-1112134
4.6770999999999985,-2.9723113534375005,Li8Mg4Si4O16,mp-11189
4.7899,-3.2169170859662213,Rb2Na2Mg10Si24O60,mp-1173467
0.00029999999999974486,-0.020775396947618863,Mg149P1,mp-1185593
1.4247999999999994,-1.3257065409722226,Er3Tl2Cu5S8,mp-1189719
3.7157,-1.7769959054403417,Zn4Mo2Se2O14,mp-1191333
4.0684,-3.0345930365985714,Nd4Mo4O16F4,mp-1192562
4.8217,-3.3524307699563334,Na5Tm4Si4O16F1,mp-1192572
2.2462,-1.8014951191105768,V8Se8O36,mp-1194518
2.3587,-2.484673857594063,Na12V4S8O32F8,mp-1194885
4.7925,-2.1342040905171435,Na10Lu2H8C8O28,mp-1195683
1.54,-0.3217791142984489,P8H76C24I28N4,mp-1196394
0.7017999999999995,-0.9794666261904764,Yb22Al2Sb18,mp-1196426
2.8072,-1.7596857996041677,Ag12Ge6S36O126,mp-1196546
3.1641,-1.1572563646018523,Na2In2I8O24,mp-1196607
3.3880000000000012,-3.319432084886365,Sr4La8W4O28,mp-1196620
3.6628,-1.3796606432715364,Cs4Os4C12Cl12O12,mp-1196677
0.027500000000000302,-0.2305825120588226,Pr46Cd8Ru14,mp-1197990
1.0972,-0.8285007425581903,Cs4Tc12Se16Br8,mp-1198737
1.5924,-0.5142612272835847,Cs12Ag4As16Se32,mp-1199633
0.6144999999999996,-0.2802690157954544,Y16C28,mp-1200885
0.1455,-2.3949212038033534,Gd4Nb4S14O60,mp-1201421
1.9233,-3.0941065228571434,Nb16O40,mp-1201852
1.0341,-1.4444222342016346,Cs6Dy21Te34Cl1,mp-1203042
3.2031,-1.72147466401875,K4Ga4Se8O24,mp-1203541
1.4374000000000002,-1.6655762751893932,In24Ga8Ir4O30,mp-1204264
0.1547,-2.4026851523399397,Dy4Nb4S14O60,mp-1204935
3.1259,-1.5888506034338459,La8N24O72,mp-1205242
0.8306,-2.195180769956,Tb4Cl6,mp-1205852
1.6058,-1.9617441314749653,Rb2Na1Cr1Cl6,mp-1206059
1.1385,-2.520725675904445,K2Co1F6,mp-1206883
2.9109,-2.9512566847222232,Pr8Te4O24,mp-1209377
0.3273999999999999,-1.2572936985714287,Pr6Ru2Br6,mp-1209743
0.9722,-1.5279575507861909,Nb6In4Cl18,mp-1210229
3.7548,-2.5445297837500003,Li4Mg2Ge2O8,mp-1210797
1.8775,-1.2632077260992656,K6Ta4As2S22,mp-1211748
2.5632,-2.2437573112368416,K8Sc4Sn4As12O48,mp-1212024
0.03640000000000043,-0.3127979433962266,Ho12Al86Mo8,mp-1212353
0.09270000000000024,-2.945582648114286,K14Nb28P18O120,mp-1212978
2.8297,-2.521070173494483,Cs4Tl4F16,mp-1213164
1.0587,-0.4322420149999999,Cr6I18,mp-1213805
3.7121,-3.1412181491129036,Ba6Gd2B18O36,mp-1214653
0.34319999999999995,-1.7089437852380949,Zn6Co8Sb4O24,mp-1216036
0.3051000000000004,-0.2679354418750002,Tl2Bi1Sb1Te4,mp-1216579
4.5352,-3.519110430083334,Tm1Sc1B2O6,mp-1216586
2.6577,-2.130490022368421,V6Bi2Pb6O24,mp-1216962
0.8280000000000003,-0.005556925729166551,Te1Se2,mp-1217269
0.3816999999999995,-2.502281067,Sr1La1Fe1Co1O6,mp-1218163
1.9081,-1.2675253147614811,Sr9B6N12,mp-1218347
0.6794999999999995,-2.479265569937502,Sm4Gd4S12,mp-1219055
0.8622000000000001,-0.6341558754496848,Rb4Bi8Se14,mp-1219787
1.4151000000000002,-1.0699036807812503,Li1Bi1S2,mp-1222404
2.358,-1.7068920484667862,La16Si10N28O2,mp-1223370
1.4132000000000002,-2.570670221544872,K3Ta3W6O27,mp-1223468
1.4098000000000006,-2.121088802638889,La12Si4Sn1S28,mp-1223487
1.6050000000000004,-2.954224397386364,Ho4Fe2Sb2O14,mp-1224105
1.5122000000000004,-3.09370560875,Gd4V2Fe2O12,mp-1225231
1.6092999999999993,-1.4384209228645826,Er2Cu2Pb2S6,mp-1225628
1.1233,-2.5172622859090903,Ca12Fe2Co6O24,mp-1227494
0.3858000000000006,-1.502064725356666,Mg1Ti1N2,mp-1245745
0.6594999999999995,-1.2553390605468748,Sc1Tl1Se2,mp-13313
1.6183,-0.06028536154094821,Cs32Si32,mp-1370
0.7321,-0.9784688843749992,Cu1Rh1O2,mp-14116
3.4625,-3.6684936176249985,Gd12Al20O48,mp-14133
3.4576,-2.6751616945500003,Ba4Na4Nd4Ge12O36,mp-14353
0.1837,-2.86718307875,Sr4Y2Ru2O12,mp-14430
5.2973,-2.400810966473215,K4Na4Li8S8O32,mp-14484
4.7399,-2.8320103515131567,Li24Y4B12O36,mp-14704
0.39509999999999934,-0.6482200447619052,P8Rh4,mp-15953
0.8488000000000002,-1.5027845005899785,Rb2Sm4Cu2Se8,mp-16116
1.4558999999999995,-2.244475712256945,Ba2La4Zn2S10,mp-16452
4.3572,-2.7197876901286766,Sc4S6O24,mp-16800
5.7857,-3.004956547163704,Na6Ge3F18,mp-17297
2.0196,-1.2643626828566663,Ba8Ta4N12,mp-17400
2.311,-1.3644435655357146,Mg8Ge4S16,mp-17441
1.6734,-1.5211176610591142,Cs8Fe4O16,mp-17443
1.0945000000000005,-1.4392994808799733,K8Rb4Co4O10,mp-17522
1.9689000000000003,-1.9995672385503471,La6Si2Ag2S14,mp-17719
5.2602,-2.8570535161984485,Cs1F1,mp-1784
7.1314,-3.99438439921,K4Pr4F16,mp-18040
7.7173,-3.495165017952,Si1F4,mp-1818
0.7844000000000002,-1.5160072450000004,Ba4Tm8Te16,mp-18196
2.3597,-1.1908246717544644,K12Al4Se12,mp-18217
3.1768000000000005,-2.720506343862608,Mn8Be6Si6Te2O24,mp-18320
1.2916,-1.1255881897743056,Ba8Ge8Se20,mp-18335
0.31909999999999994,-0.4431329272307693,K16Sn2Sb8,mp-18633
2.8727,-2.0068284955714284,Na4Cr2O8,mp-18779
1.8904,-1.9086361670000005,Na8Cr2O8,mp-18884
2.6925,-2.6879353855032466,Li2Cr2P4O14,mp-19103
0.3121999999999998,-0.4266161082291665,Ru4Se8,mp-1922
3.7586,-2.4831802045588245,Al8Mo12O48,mp-19521
0.1687000000000003,-2.0129558561900005,Tm1N1,mp-1975
0.0005999999999994897,-3.0708256178571434,Eu2V1O4,mp-19815
1.1912,-1.7901479173214283,Li12Cu4O12,mp-19970
1.1795,-1.0447536423214283,Mn1Ga2S4,mp-20025
1.0831,-2.132922911702857,Mn8Ge4O16,mp-20223
0.3735,-0.2392503611875001,K16Pb16,mp-21526
0.5451999999999999,-2.7694601932000005,Na2Nd4Os2O12,mp-22329
1.5711999999999997,-2.01581137125,Fe4Ge4O12,mp-22334
2.6586000000000003,-1.6600161855832951,Rb2Te1Cl6,mp-22975
1.7355999999999998,-2.47115135475,Ba2Bi1Sb1O6,mp-23127
5.4325,-2.2459770596728568,K2P2H4O8,mp-23959
0.8114,-0.8199541764531251,Fe4Co4H72N24Cl24,mp-24447
0.31309999999999993,-1.9428497547600003,Mn16Cl6O20,mp-25773
3.3255,-0.3901398386607142,P4Br12,mp-27257
2.438,-0.7333158513333338,Ag8I8O24,mp-27384
4.0652,-1.805150927067308,As8S8O36,mp-27739
1.814,-2.1471256076583334,Bi1F5,mp-27743
0.02479999999999993,-0.5076075215000003,Ba4Ge8As8,mp-27810
2.035,-0.3429071750000002,Ge3I6,mp-27922
3.0315,-1.481055010125,K8Pr4I20,mp-28277
1.489,-2.1635982101973674,V4As2O13,mp-28337
1.8991,-2.3189895487172727,Cd8O2F12,mp-28855
0.8134999999999999,-0.14723653166666692,Hg4As6Br2,mp-28899
4.3287,-0.5383904720599997,H12N4,mp-29145
2.9118,-0.17421671892849985,B72H88,mp-29654
0.009400000000000295,-1.5336098683333328,Tb16B4Br24,mp-29847
3.5856,-1.9874980294318176,Sr8I12O2,mp-29910
3.4656,-1.4095861736730082,In8Se24O60,mp-30325
0.21389999999999976,-0.671014235,Dy1Ni1Bi1,mp-30452
3.4021,-2.7472907603571435,Mg8Ge4O16,mp-3051
0.05819999999999936,-0.6179332673750004,La6Sn26Rh8,mp-30513
2.1323,-0.953077618597222,Na16Si4Se16,mp-30931
5.4757,-3.0081590319368128,Pr2P6O18,mp-30957
2.7536000000000005,-3.2363698492500013,Sr2Ta1Cr1O6,mp-31624
2.752,-3.034773891022728,Y4Sn4O14,mp-3370
4.1494,-3.416309151666667,Ba8Ti4O16,mp-3397
0.3380000000000001,-0.3583229134635415,Cr1Ag1Se2,mp-3532
4.954,-4.2501038316466655,Y2O2F2,mp-3637
3.4803,-1.4188214202777776,Mg2I4O12,mp-38322
5.0725,-3.588434622509584,Y6Pb8F34,mp-38916
1.849,-3.5736505315833336,Sr2Ti2O6,mp-4651
0.8645,-0.6929282226282052,Na20In8Te24,mp-505045
0.9581000000000004,-1.3205014935714283,Zn2Rh4O8,mp-5146
1.3186,-0.775168787266154,Li60Cr8N36,mp-530262
0.5247999999999999,-1.027448166346154,Ba56Al4Sb44,mp-530714
2.6738,-0.730778462318182,K8W24Br56,mp-531952
2.0957,-1.181694625492098,Cs8S4,mp-540703
3.3289,-2.1879166869,K4Mo6O20,mp-540788
2.3369999999999997,-1.9951619519548618,K2V6Se4O24,mp-541520
2.9753000000000007,-2.4207556451984127,Co4P8O24,mp-541790
1.4975000000000005,-1.1900616516619908,K4Nb8P4S40,mp-542972
1.5167999999999997,-1.6482991068920694,Rb12Mn4O12,mp-553971
3.7529,-3.068368159098572,Dy4Mo4O16F4,mp-554213
2.968,-3.5083609454346667,Pr8Ti12Cl8O32,mp-554363
2.7393,-2.7404763982760003,Mn12Si4O16F8,mp-554429
4.5209,-1.7428763681233148,Mg2Tl2P2H24O20,mp-554894
3.4571,-2.701158164392858,K8Mg4P8W4O40,mp-555398
4.0496,-2.3966363475384616,K16Hf2Mo12O48,mp-555607
1.7883999999999998,-2.5099073011206907,Sr9Zn4Cu2O14,mp-555609
1.2043,-2.7029017143460012,Sr4Mn2Mo2O12,mp-555929
2.2059999999999995,-2.9756661336746033,Ti4Fe2P4O20,mp-556401
2.5848000000000004,-1.5317457846875009,Sn4Se8O24,mp-556672
3.7779,-1.902180803725682,As4S4Cl12F24,mp-556705
5.4627,-2.7578183627553803,Cs10Ca2Ni8F30,mp-556893
7.1437,-3.8814393646443586,K6Ca6Al12F54,mp-557743
4.7677,-2.943803253461311,K8Sr4P8O28,mp-557747
4.1549,-2.8736317608718487,Zr8P32O96,mp-557909
4.7069,-2.9966111474166675,K2Li2Si4O10,mp-558102
1.5254,-1.3899883809787497,Sb2Se12I2F12,mp-559000
3.4836000000000005,-2.3677221604125007,Zn4Si6Pb8S2O30,mp-559184
3.3074,-3.210903462127917,La20Sb16O48F12,mp-559298
1.4476,-1.3401914628557636,Zr4H24N20O70,mp-559369
3.6851,-3.3000134669444448,Y8W4O24,mp-559510
3.0596999999999994,-2.6681921365608474,Cr4B2P6O24,mp-559723
3.5723,-2.487640433220444,Cs12P4O16,mp-559808
2.6241,-2.4878373451023807,Na12Sb4P8O36,mp-560642
2.9164,-2.4298708014499995,Ca20Te20O60,mp-560656
2.3303000000000003,-2.354155057365769,K4V5Cd1Cl1O15,mp-560688
2.3528,0.0,F4,mp-561367
4.6206,-2.9378690805041003,Cs8W8F56,mp-561687
3.8006,-1.8241237822867915,Cs8Se4O16,mp-562442
1.5113000000000003,-1.3150081162630205,Y6Cu2Si2Se14,mp-568638
1.9502,-1.1642695799661114,K12In2Te8Cl2,mp-568916
0.6164999999999994,-0.9912545010208332,Ba12Na2Cu6Te28,mp-569168
3.2599,-1.2270434862128392,Cs4B24Cl24,mp-570530
1.6151000000000002,-0.5744473157309627,Cs4B4Se12,mp-573358
1.1909,-0.6230170066302083,Na8Te4Se12,mp-573581
0.07459999999999978,-0.1358096673850575,Cs3Ga9,mp-574338
0.14660000000000006,-3.4770342173329998,Ba4Ca2V4Cu2F28,mp-581167
4.457400000000002,-2.8518578098178216,Cs16Na8Al8P16O64,mp-581862
3.904,-3.3617332881249995,Li2Sc2O4,mp-5840
3.7137,-2.8322724863140003,K1Zn1F3,mp-5878
0.07240000000000002,-0.29438066166666604,Li1Al1Ge1,mp-5920
7.375,0.0,H1,mp-632250
2.2292,-1.739967444267242,Rb4Cr16Bi4O56,mp-642938
5.1556,-2.14883198578,Li2Al4H12Cl2O12,mp-643655
4.863899999999999,-2.6341935297603807,Na3Mg1P2H1O8,mp-643658
0.17189999999999994,-0.4844984565799996,Eu2Mg2H8,mp-643756
1.6395,-1.4502997232769093,La6Si2Ag2Se14,mp-6485
1.243,-1.4151895785136492,Cs4K4Cd6O10,mp-650532
1.5581999999999998,-1.9921785682692312,Fe12Ge8O32,mp-651997
3.3549999999999995,-2.551621715884922,Na2Sn4P6O24,mp-6525
0.39899999999999997,-2.601459361136364,Sr6Li2Ru2O12,mp-6721
3.8609,-2.1354276295098686,K8Cd8S12O48,mp-6724
3.3747,-1.861861625956,Li18In6Cl36,mp-676109
2.8289,-2.8044389059813994,Na40Ti10P20O90,mp-680756
6.0552,-3.1938829881440736,K1Be2B1O3F2,mp-6870
3.7112,-2.3477603014414408,K10Hf2In2Mo12O48,mp-695069
4.329,-0.4718951771008335,H16S8,mp-696805
4.732799999999999,-0.6014883413807137,P4H4N8,mp-697139
3.2464000000000004,-1.2789048361990003,Cd8H24N8O40,mp-722862
2.5795000000000003,-2.389681402552084,Ti2Bi4O10,mp-752676
2.3276,-2.958519444166668,Ta2Cr2O8,mp-753467
4.634,-2.89402947546,K12Er4Si12H8O40,mp-758527
3.2302,-2.6652182966283338,Ta4Tl4P14H2O48,mp-758895
3.4687,-2.9197972249549995,Li4W4F24,mp-759647
3.5604,-2.879399565,Lu2As2O8,mp-7644
0.8082,-2.4015694186495717,Mn2P4O14,mp-771660
5.7849,-2.355114385250417,Li2S2O6F2,mp-7744
3.407,-2.2652710411891075,Sn2P2H2O10,mp-775543
1.8236,-1.72260852617647,Cr12Fe8O48,mp-776667
1.0214999999999996,-2.3935547192857136,Li4V3Cr3Sn2O16,mp-777670
1.9855,-2.5513773992019977,Hf16N16O8,mp-780075
1.2253000000000005,-1.724595130991379,Rb2Sn2O3,mp-7863
6.0358,-3.0747356005059774,Cs2Ge1F6,mp-8217
0.0054999999999996154,-0.585375465416667,Ti1Sn1Ru2,mp-865888
5.694699999999999,-0.523465570856491,Ca4B8H56N8,mp-866308
2.2605,-1.7732524162500007,Ca8Sn4S16,mp-866503
1.743,-2.153389868582974,Cs1Gd1S2,mp-9084
0.01360000000000028,-0.4661977161111111,Ti2Tl2Cu2Te6,mp-9344
1.0008,-0.9680184896562504,K4As2Au2S8,mp-9511
1.6991000000000005,-0.20267893218750024,Li4Si4B24,mp-973391
2.1699,-1.2205846594062502,K6Sb2S8,mp-9781
2.8618,-1.3799702639560003,Tl6Bi2Cl12,mp-980659
0.6128,-0.4850590810416664,Ag2Au2O4,mp-996983
2.8456,-0.5190793840934153,Bi4H36C6I18N18,mp-1016214
1.7319999999999998,-2.960199883250002,Ba2Nb1Fe1O6,mp-1021504
0.6158000000000001,-0.4562519960788691,Co8P8Se8,mp-10368
2.8238000000000003,-2.1167708515136057,Tl8Te4Mo8P8O56,mp-10448
2.4016,-0.2097473574134483,Cs1H1,mp-1057286
1.7847,-0.3450562641299999,Br2Cl2,mp-1066781
0.9387,-0.888645901666667,Tm2Ag2Te4,mp-1078600
0.9749,-3.0898275572500005,Ba2Gd1Mo1O6,mp-1079839
1.9645,-1.7935239259267242,Cs2Fe2O4,mp-1080749
2.2172999999999994,-2.2264829947000004,Ba2Na1I1O6,mp-1091394
0.3400999999999996,-1.3883689545312503,Nd4Sb4Se4,mp-1103651
1.0999999999999996,-0.1668788437040811,Na2Ge6P6,mp-1104707
4.1538,-3.095899733114,K3Cr1F6,mp-1111695
5.3977,-3.17919618175,Pr2B6O12,mp-11183
1.6085,-0.9660490668924316,Cs4Sr1Sn3Se9,mp-1181839
0.5689000000000002,-1.5598037532142857,Ba4Gd8Te16,mp-1182773
9.999999999976694e-05,-0.2594255091666664,Ti1Cr1Tc2,mp-1187470
2.6165000000000003,-0.7695728668577774,Yb2H6Ru1,mp-1187892
2.1899,-1.2683661397395838,Li4In4S8,mp-1188392
1.4002,-1.354760656339286,Ba4Ge2Se8,mp-11902
3.9149,-3.2290659220454536,Sr6Li2Ta2O12,mp-1190486
1.9019,-2.147061860700758,Ba6Gd2In2S12,mp-1190744
4.2791,-1.7764301779233336,Na4Ga4Cl16,mp-1190761
1.7001,-1.8815002124456517,Ba1Au2S4O16,mp-1190864
0.9007999999999998,-1.5596889626302082,Sr4Gd4Cu4Se12,mp-1190889
3.4191000000000003,-2.20449897066092,Cs4Mo6O20,mp-1193056
2.1058,-3.050335793821332,Ta9N3O18,mp-1193678
3.5612000000000004,-2.512597245434028,Fe6B14I2O26,mp-1194881
1.709,-0.8098663858701638,K8Sc4P8Se28,mp-1195538
2.7503,-2.401410063890916,Cs4Nb4S8O36,mp-1196826
3.5397,-1.4797930912630248,Al2H28Se2N2O28,mp-1197821
4.7029999999999985,-0.8985832562461666,Al8H56C16S8Cl32,mp-1198123
0.02430000000000021,-1.9486412039762493,Ba8H4Ru12O40,mp-1198408
3.3317,-1.5007537797039472,Ge2Pb4Se8O24,mp-1198509
1.3394,-0.7253032164475579,Cs8In8Te16,mp-1199743
0.9583,-1.6632877015104173,Gd8Ag8S16,mp-1200242
0.16370000000000007,-2.483070542994483,Cs10Co10F40,mp-1202342
1.8653,-1.3248513046283341,K8H12Ir4N4Cl20,mp-1203386
3.3551,-2.52801709943544,Na16Fe12P16O60,mp-1203835
3.3178,-1.6030632545164285,Na40H32Br8O32,mp-1204007
0.20719999999999986,-1.0930334383180158,Cu64Se48O160,mp-1204253
0.5156000000000001,-1.7151891018238916,Rb3Na1Ru2O8,mp-12046
1.0814,-2.6744778022712508,Tm4Mn8O20,mp-1207725
3.3235,-2.8883042380681827,Sm4Al4Ge8O28,mp-1208925
7.577000000000001,-3.915227264720536,Rb2Lu2Be2F12,mp-1209222
7.0008,-4.255384656383,K4Tm8F28,mp-1211506
2.9409,-2.3714539852222223,K8Zr2O8,mp-1211624
3.4912,-2.058022603557292,K4La4Se8O32,mp-1211641
6.7912,-3.78739651086875,K8Tb4F20,mp-1211691
1.8253,-1.8676905324444453,K8Cr2O8,mp-1211715
1.0248,-0.8737703102857145,K6Au6Br16,mp-1211803
2.7233,-2.893139954333333,La12In8Ga12O48,mp-1211871
1.2251,-2.0485196569693938,Fe2Ni2Ag4F14,mp-1212687
0.9399,-1.1430453575464188,Cs2Tm2Nb12Br36,mp-1213326
0.0018000000000000238,-3.091409069270835,Li4Eu24B12O56,mp-1213345
0.04269999999999996,-0.5762224168055555,Dy16In4Ir4,mp-1213425