band_gap,formation_energy_per_atom,full_formula,task_id
3.6153,-1.959743312142857,Si4Ni8O16,mp-19072
2.3390000000000004,-2.7910649753460004,Ca4Mn2W2O12,mp-19108
3.3868,-2.9351737726136364,Sr8V8O28,mp-19368
1.5513,-2.96375123425,Tb4Fe4O12,mp-19853
0.05950000000000076,-0.5278958100000004,Gd2Al4,mp-19923
3.4859,-2.189111865652778,Na2In2W4O16,mp-20678
0.02510000000000012,-0.8392198186111118,Eu4In4Pt4,mp-21051
0.6236999999999999,-0.4889649906388887,K4Na2In2As4,mp-21510
3.9425,-2.9138360228571427,Al4Pb2O8,mp-21892
0.04339999999999966,-0.3004014774999999,Lu1Cd1,mp-2217
2.5429,0.0,Cl4,mp-22848
2.215,-1.4050714256817245,Cs1I1Cl2,mp-22990
1.7152000000000005,-1.4134016280357145,Ca2P1I1,mp-23040
1.9563,-1.6150971050154808,As4Se12Cl12F24,mp-23575
3.4231,-1.274103498748571,Zn4H32N8O40,mp-23929
3.6209,-1.5505127244172352,Cs4H4Se4O16,mp-24141
3.6166,-1.2289473095400003,Sr2H2I2,mp-24205
3.2742,-1.5177746276482695,Mg2H4Se4O16,mp-24546
0.11760000000000034,-0.5252953174999995,As8Pt4,mp-2513
3.8885,-2.5539044663509314,Li4Fe6P8O28,mp-26985
2.6209,-3.1014757190500384,Cs3Cr3F12,mp-27149
1.0920999999999994,-0.44934908638095217,P12Ru3,mp-27173
3.1916,-2.027719882634616,Na8As4O14,mp-27197
3.4586,-1.0988225991399998,Cd8N16O48,mp-27198
4.6109,-3.994392858600833,Ca1Ti1F6,mp-27315
2.3193,-1.5337439943400002,K2Tl2Cl8,mp-27385
4.4173,-2.6225153966181316,Na16P8O28,mp-27579
3.4387000000000003,-1.346424349325,Br2F10,mp-27987
2.3763,-2.337568183708572,Mn2Cr4O8,mp-28226
2.4851,-1.288922743854167,K4Na4S4,mp-28383
1.0698,-0.4798800257142857,W1Br6,mp-28483
3.343,-2.451969710776668,Nd8N4Cl12,mp-28970
4.4582,-2.8872697570361487,Cs8Sb8F32,mp-29296
2.8442,-1.5970400021679687,Bi8Se4O20,mp-29839
2.4872,-1.3587151162500009,Li16Ge4S16,mp-30249
6.4096,-3.3950217286799997,K2Mg1F4,mp-31212
2.5310000000000006,-2.946180563055555,Ta4Co2O12,mp-31517
4.9361,-3.3862425086944445,Al10B2O18,mp-3281
3.1255,-2.241749838125,Li8Sn4O12,mp-3540
0.8891,-0.19857567499999984,Zn2Si2As4,mp-3595
0.7078000000000002,-1.4917410591666669,Hg1As2O6,mp-3810
4.4825,-4.1473377324800005,Sc4O4F4,mp-4661
1.178,-0.23741015152173955,Te20Mo6I20,mp-505260
2.8553000000000006,-2.3679226641875006,K16Co8Si8O32,mp-505285
0.3749000000000002,-0.4155470200000006,Nb1Sb1Ru1,mp-505297
3.7545999999999986,-0.7108544798526187,K4P16N28,mp-505495
1.0364999999999998,-0.6042329246028325,Rb8Sn16Se32,mp-505750
1.0820999999999996,-1.5909099356977368,Cs2La4Cu2Se8,mp-505815
0.19789999999999972,-0.6884156682826474,Rb4Ag8S6,mp-510240
2.5007,-2.203258103335069,Sb24Cl35F85,mp-532120
2.2881,-2.6240219615974025,K8Mg2Fe6P10O40,mp-532755
3.9847,-3.379963388959041,Rb10Nb6O2F36,mp-540995
4.0533,-2.975909878015555,Ba2Zn7F18,mp-541827
5.7393,-2.804850714427303,Sm2P8H2O24,mp-542237
0.3383000000000003,-0.8629362155357144,Sr24Ga8Sb24,mp-542625
2.5321,-1.8510376947916671,Bi28Mo8As12O96,mp-554090
3.6937,-3.0058800625829654,K1Rb2Mo1F6,mp-554168
3.3268,-2.636050150590658,Cr4P12O36,mp-554600
3.5985,-1.9288789537462587,Mg2P8Cl20O12,mp-554819
0.6426999999999996,-3.1639437544087503,Eu8Si4Cl8O12,mp-555322
2.4788,-1.5085906004849132,Zn6Fe4Se12O36,mp-555802
2.6270999999999995,-3.3380581034175,Lu2S2F2,mp-555850
4.754099999999998,-3.8578079998437502,Er8Si4O20,mp-555983
3.5652,-2.372698224664836,K8Bi4Mo4P4O32,mp-556606
5.0821000000000005,-3.2837470923730296,Er8B8Cl8O20,mp-556986
1.3264999999999998,-1.014931488599138,Rb16Sn16S64,mp-557059
1.3072999999999997,-2.717152675916667,Ba6Cr4Mo2O18,mp-557755
2.4363,-1.73263115775,Tl4Sb4O12,mp-557787
2.7204,-2.275266477008524,K16Mo4S12O56,mp-557872
3.623,-2.734918280214285,Mg8Bi4P4O24,mp-558660
4.686,-3.2841625128819447,Sr2Al4B4O14,mp-558669
2.4135,-2.7302144718942856,Gd2Mo2Cl2O8,mp-559032
3.3884,-2.9784735942077165,Cs1Ta1P2O8,mp-559118
2.4341,-2.549433048224026,Na4Li8Mo8P12O56,mp-559443
1.8662,-1.2759959274999997,Cr4Hg12Pb8O32,mp-559462
1.9044,-1.9203052276178727,Rb6Mn6O12,mp-559700
3.1394,-2.2832629321833338,K12Nb4As8O36,mp-560208
7.5146,-3.4097599663479023,Rb4Li8Be8F28,mp-560518
2.5768,-2.5648823482500003,Cd12Si12O36,mp-560560
3.5820000000000003,-2.4199009361111115,La8Te12Mo4O48,mp-560573
4.0828,-3.0206531988553786,Cs4K1Li1Fe2F12,mp-561000
1.5519,-2.189006087413045,Na16Ce4As16O56,mp-561448
3.431,-2.877215642934549,Cs14Fe8F30,mp-562028
1.8162,-1.4107099844456898,Cs8K32Tl8O32,mp-562074
4.7668,-3.26254645999569,Cs8Al8Si16O48,mp-562920
1.1281,-2.1902132023041223,Rb4Zr24C4Cl60,mp-567966
0.006600000000000161,-0.35956320950000004,K12Na8Sn4Bi12,mp-568329
0.6385000000000001,-0.6920164093678162,Cs4Fe4I16,mp-568620
2.6859,-1.1604071477686413,Cs1Hg5Cl11,mp-568628
1.4405,-0.4208179203520117,Rb20Ta4Tl8As16,mp-570566
2.6688,-1.8506638306177776,K4Sn2Cl12,mp-571453
1.6879,-2.8092407763460003,Tb4Mn2Ni2O12,mp-573037
0.4654,-2.373119408626821,Cs14Cu12F38,mp-573073
1.9737,-1.983974040952381,Zn12Ge6O24,mp-5909
1.0113000000000003,-0.27054955166666633,Te4Mo2,mp-602
3.2001,-1.9981567382500012,K2Ge2Pb2O7,mp-608014
2.9576,-3.497459164739583,Ca4Ti4Si4O20,mp-6109
0.3711000000000002,-2.30135931225,Ba6In3Ru3O18,mp-616601
2.3341000000000003,-1.0554479387704083,K4P4Pb4S16,mp-638150
4.0455000000000005,-0.6074732318302034,P2H16I2N8,mp-643158
4.9204,-2.850557333532,Ba8Er4Cl28,mp-651358
1.6208,-0.90310397671875,Re12S16Br4,mp-652046
0.5885999999999996,-0.5652279246875006,Tl18S9,mp-667
3.7661,-3.0124821007500016,Ba2Pr1Sb1O6,mp-6692
2.7788,-1.4946631065309093,Ta4Te4Cl36,mp-669345
7.1429,-3.1344183219362187,Cs1P1F6,mp-675011
4.1304,-3.5596239615000003,Ca2La2Mg2Ta2O12,mp-684801
3.637,-0.44616985008,Na2H6Pt1,mp-690785
1.5709000000000002,-1.1643685601377296,K5Rb1Zn4Sn5S17,mp-694852
3.9718,-1.9800233344541072,Tl8P8H16O32,mp-697267
5.573099999999998,-2.8650042500675315,Ca4B16H4O30,mp-706291
4.0735,-2.7085410427697303,Na8Be4Si12Sn2H8O40,mp-706336
3.3193,-1.2614074809643243,Be4H56I16O72,mp-723109
2.0964,-1.4054133456099995,Gd2H36I6O18,mp-735051
5.2376000000000005,-1.6006099602335813,Cs4Ga4H96S8O80,mp-738629
2.7756000000000003,-0.588113940191111,Yb19Mg8H54,mp-740759
2.3963,-3.2199354582437496,Li4V2F10,mp-754000
1.3658,-1.3618316001666664,Na12Cu4O8,mp-755401
4.0048,-3.1867008455000003,Na4Ho4O8,mp-755617
2.3234000000000004,-2.437507453916667,Li4Ti2Te2O12,mp-756117
2.9875,0.0,F4,mp-760482
2.2270000000000003,-2.6908663797772987,Cs4Ce2O6,mp-768223
3.2861,-3.9161778931770823,Ho8Ti4O20,mp-768605
2.8922000000000003,-1.8053659281958123,Cs12Ga4O12,mp-770463
0.12379999999999967,-2.4265544082500012,Sm4Cu4O12,mp-770767
3.011,-2.104841939,Li1Cr1C2O6,mp-770839
3.0048000000000004,-3.1289978050119043,K3Ta6P3O24,mp-773066
3.4327,-2.4580065394044546,Na12Sn4B8S2O32,mp-780239
3.716,-3.09355202925,Ca6W2O12,mp-781505
4.2769,-2.46547216,Al1As1O4,mp-7849
2.1084,-2.6333972502675,Ca1Pd1F6,mp-7922
0.3722000000000003,-0.4915047787499995,Li8As8,mp-7943
1.3684,-2.4991585462675,K1Os1F6,mp-7984
4.9577,-3.009944124015556,Na4Sn2F12,mp-8081
1.2931999999999997,-0.16814576833333295,Li2Al2B28,mp-8204
2.7044,-2.150069490209052,Na12V4C8S2O32,mp-850796
3.6041,-2.841649438690476,Sr2Sn2P4O16,mp-862718
0.02700000000000013,-1.8657326163072003,Mn8Pb1O16,mp-863405
4.3743,-2.32952556406131,Mn2P4H4O14,mp-865024
5.3953000000000015,-4.143477059642501,Tm1F3,mp-865194
2.7947999999999995,-1.3939335750905881,Ca20Al8Si8N32,mp-866314
2.7272000000000003,-2.2887082323809524,Li6Ga6Ge6O24,mp-8702
3.9634,-2.7466583497527477,Sr4Zn8P8O32,mp-8810
3.3444000000000003,-3.4009401082201087,Sr4Al6S1O12,mp-8877
1.4576000000000002,-0.12612595059523812,Cd8P16,mp-913
2.7145,-2.7446818503940213,Al6Cd4S1O12,mp-9203
0.7361,-0.7152437579519997,Sr2Zn1N2,mp-9306
0.6102000000000003,-0.40405518351388897,Ag32Ge4S24,mp-9770
3.4360000000000004,-1.2348543805022216,Sr12Li24Si24N48,mp-978840
3.7143,-2.7315350515175005,Zn1W1F6,mvc-15835
1.8862,-3.1064468692500014,Ca4Ta2Fe2O12,mvc-4371
1.1498,-0.3775267385714294,Be2Si2P4,mp-1009085
1.2847,-0.6657843148749998,Na2Al2Te4,mp-10163
4.4902,-2.7408723393520105,Cs4Li16B20O40,mp-1019716
5.2589000000000015,-3.088286634537357,Cs8Si16B8O48,mp-1019719
5.5360000000000005,-2.2371880510795465,Li8S8O28,mp-1020013
5.3928,-2.8925779406913272,Na2Sr2P6O18,mp-1020657
5.4345,-2.8799543021198977,Na2Ca2P6O18,mp-1020683
1.5906000000000002,-0.6700275873958338,Mo4Se8,mp-1027692
1.2352,-1.2867365866133331,Ca8Zr2N8,mp-1029660
2.1515000000000004,-0.14179771429060525,In4C6N12,mp-1029677
3.0917,-2.0841341717020003,Sb1N1O2F6,mp-1078298
0.17220000000000013,-2.1894106399560007,Gd4Cl6,mp-1078829
0.17999999999999972,-0.5883871531904766,Sr2In4P4,mp-1078973
1.2644000000000002,-2.156276791612605,Ba2Ag2Se2F2,mp-1079647
6.2965,-3.434174320114,K3Al1F6,mp-1095079
2.1528,-0.8610969341666662,Al2Cu2Br8,mp-1102536
2.7928999999999995,-2.6246123057828568,Ba1Li2Mn1V2O8,mp-1103771
0.6391,-0.38624705991071395,Mn2Bi4Se8,mp-1104183
3.1768,-1.9485865437858336,B2H2Pb4O8,mp-1105235
1.0576,-0.7449134751987548,Cs2Pd3Se4,mp-11694
4.5214,-2.727816758846956,Na4Al4Si6H8O24,mp-1173798
4.5096,-3.193266979583333,Ho2Br2O2,mp-1178160
3.1022,-1.1247901199547825,Ca2H16Br4O24,mp-1182712
0.2636000000000003,-0.021622338666666487,Dy1Mg149,mp-1184537
0.1166999999999998,-0.028522624821733112,Mg149Cl1,mp-1185584
1.0383,-2.3034342808333323,Yb2Cr2Te2O12,mp-1187813
2.2303000000000006,-1.2034469195492428,Na4In4Si2S12,mp-1190138
1.4199000000000002,-1.2034553973090285,Ba4Ag4Sb4S12,mp-1190401
2.2048,-1.844992391525,Co1Bi6S2O16,mp-1190466
0.2820999999999998,-0.3768045437212647,Cs16Sb8,mp-1191118
6.3689,-0.433120169357777,Li4B4H16,mp-1192133
0.6582999999999997,-1.0380216292857145,Ba12Al4As12,mp-1192376
2.891,-1.500787934544335,Cs6Er4I18,mp-1194135
4.9758,-2.5630359050014033,Ba2Ga2B8H6O20,mp-1194652
1.446,-2.2442381672510527,Ce4Te8Cl4O22,mp-1195865
3.3274,-0.19290746880111104,B40H52Br4,mp-1197561
1.3767999999999998,-1.1936189479469237,Hf8Hg32As16Cl48,mp-1198529
2.638,-2.583333800040728,Ca2Fe2B2P4H4O20,mp-1199046
1.9582,-2.40934960521978,Cs6Ho21S34Cl1,mp-1199243
5.9392999999999985,-0.4538304022051847,Mg2B6H40N6,mp-1200895
2.4464,-1.6363579320357151,K2Tb2Ge2S8,mp-12011
2.1194999999999995,-1.2838500540200006,Pb12N8O32,mp-1201318
4.1568,-2.5892761981000003,K8La4Cl20,mp-1201545
1.2417000000000002,-2.352709145890417,Sr8Mn8Se4O16,mp-1201675
1.2884,-2.2157344992052,Na6Sm2Mn6As6O30,mp-1201950
2.9121,-1.2800445019300597,K16P8S24,mp-1202353
3.0712,-1.759794525243399,Cs16Hg8Cl32,mp-1203522
3.0038,-0.903884300600842,P4H72Pt4C24S12Br4F24,mp-1204443
1.0678,-0.5712760804374994,Nb2Se4I4,mp-1205627
2.2399,-2.88594148225,Ba2Mg1Mo1O6,mp-1205825
1.5204999999999995,-0.6305839168577774,Ca2Fe1H6,mp-1205964
3.5522000000000005,-2.0637729406800003,Tl2Ni1F4,mp-1206532
0.28639999999999954,-0.6646657358333327,Sm1Ni1Bi1,mp-1206682
0.2306999999999997,-0.6020035752040818,Tb2Zn6P6,mp-1208551
3.6771,-1.5313420174195655,Li8Nd4N20O60,mp-1211215
0.9067000000000004,-2.2152602164000013,K2Mg6Cu2As6O24,mp-1211416
1.1271,-1.9320796981833328,Gd4In8Cl20,mp-1212862
0.04760000000000009,-3.3994891828947384,Er5Re2O12,mp-1213202
1.3163999999999998,-1.1250948317771878,Cs2Lu2Ta12Br36,mp-1213389
2.0606,-2.5162659232856317,Cs6Pd2F10,mp-1213701
1.4565,-1.5089114874856326,Cs12I4O20,mp-1213723
0.038299999999999564,-0.8296621274999987,Ce4Al18Ir6,mp-1213885
0.8177000000000003,-0.9766623152380954,Ca22Ga2Sb18,mp-1214384
1.0987999999999998,-0.8361109268566187,Bi4Pb12S18,mp-1214399
4.6831000000000005,-1.6545147599948358,Al4P8H48N12O32,mp-1215134
1.6936999999999998,-2.372500398273809,Zr2Sb2Pb4O13,mp-1215826
0.9634,-1.9912362989945656,Y6Mn1Si2S14,mp-1216090
0.4345999999999997,-2.50260222525,Sr2Pr2Zn2Ru2O12,mp-1218068
1.8795,-0.5538696229622394,Se3S21,mp-1219328
5.492999999999999,-2.943530871930533,Rb6Nd6P24O72,mp-1219990
3.9093,-2.2666372396499064,P4Pb8S2O24,mp-1220066
1.2328,-1.062237077948082,Nb8P4S42,mp-1220713
0.061599999999999426,-0.35041677143750005,Mn1Tl1Cu1Se2,mp-1221565
3.9127,-2.514349227945647,Li4In2P4H2O16,mp-1222810
4.6584,-3.2855286068095015,K1Na1Ca1Mg5Si8O22F2,mp-1223435
1.5193,-1.8252682775555555,K1Li1Zn3O4,mp-1223469
2.5102,-2.4019210820938377,In2Sb6P12O48,mp-1224667
1.1838000000000006,-2.5021810411536376,Er2Mn3Sb3O14,mp-1225740
4.4311,-3.2753384146311366,Cs2Mg2In2F12,mp-1225951
2.3112,-1.5218742401046796,Cs6Pr10P12S48,mp-1226429
2.8087,-2.5592809579012537,Cs4V2H4O4F8,mp-1226442
0.27380000000000004,-0.7340644668452383,Cd1Ag2Sn3S8,mp-1226771
1.7243999999999993,-0.09385537375000094,Al18B6C18,mp-1228599
2.3459000000000003,-2.7705525480092605,Ba12Nd4Fe8O30,mp-1228695
1.1925000000000003,-2.6432042544907404,Ba8Sr4La4Co8O30,mp-1228696
8.2462,-3.2719923902377777,Li3B3F12,mp-12403
6.8685,-3.602988908639,Na12Li12Sc8F48,mp-14023
4.9474,-2.8272701173698978,K2Mg2P6O18,mp-14058
2.2776,-1.4563092563392859,Ba4Si2Se8,mp-14447
2.8693,-0.4319765613584191,P32S24,mp-1468
0.6038000000000001,-2.6487301848214297,Ca4Cu4P8O28,mp-14694
3.3328999999999995,-0.8804703243349993,Li56Nb8N32,mp-14827
2.5813,-3.2936098549023445,Nd16Si8S12O28,mp-14835
2.6129,-3.0465146019318188,Lu4Sn4O14,mp-15170
3.0611,-2.9250606240000017,Nd12Ga20O48,mp-15239
1.1875,-0.23897101958333405,Be2C1,mp-1569
1.4336000000000002,0.0,B12,mp-160
0.4838,-0.6688100744201387,K2Ag2Se2,mp-16236
2.3522,-1.424684980101934,K8Nd4P8S28,mp-16690
2.3176,-2.9405240925922222,Dy4Pt4F28,mp-17160
0.0043999999999995145,-0.7279723716691184,K3Cu8S6,mp-17174
2.3831,-2.9345939250922224,Sm4Pt4F28,mp-17569
2.8697,-3.0703058381770845,Ca4Ti4Ge4O20,mp-17784
1.5387000000000002,-0.8921429075619614,Cs12Sb4Se16,mp-17811
2.1659,-3.2479366097222218,Dy8Mo4O24,mp-17822
2.0969,-2.19383096934524,Ba8Ti4S16,mp-17908
1.4832,-1.5439390159688484,Rb2Ho4Cu6S10,mp-17929
4.8968,-3.5769233906477784,Y4Sn4F28,mp-18183
2.8456,-2.700135618503247,K4Cr4P8O28,mp-18387
3.0196,-3.1956123995833337,Nd2V2O8,mp-18812
2.3411,-2.6120561970600003,Mn8Si4O16,mp-18928
2.5125,-3.2433297482499994,Er4Cr4O12,mp-19063
0.2504,-2.7587467637499987,Nd2Cr2O8,mp-19126
1.7823,-1.9247667970416675,Na1Cr3O8,mp-19280
0.037199999999999456,-0.8406210683333329,Gd1Sn1Au1,mp-20514
3.0189000000000004,-2.08728184,V4Pb6O16,mp-20564
0.6675999999999997,-0.7028809511379311,Rb8Te12,mp-2095
0.1660999999999997,-1.4292905616632652,K12Ce4P8S32,mp-21557
1.7062,-0.997477417470238,Sr8In16Se32,mp-21733
0.9545,-0.5760059408630954,Cd1In2Se4,mp-22304
0.5916000000000006,-2.9832285184375,Sr3V2O7,mp-22391
0.012800000000000368,-0.6942387405000006,Tb8Fe12Si20,mp-22468
1.0491999999999997,-2.468524450437501,Gd2Lu6S12,mp-22563
0.06319999999999926,-0.5149439281818179,Gd2Al14Au6,mp-22711
4.4819,-3.120730395416667,Nd2Br2O2,mp-23068
2.7389,-1.686294944208334,K1As4Br1O6,mp-23083
4.3117,-0.7130201503099999,H8Br2N2,mp-23675
5.2655,-2.2017623614228574,Na8P8H16O32,mp-24109
3.3328,-1.7466521187500357,Co1P4H16N2O16,mp-24300
3.9705,-0.9153407041320004,Cd4H16Br8O32,mp-24509
3.5292,-1.675922775674,K4H2Br2O2,mp-24589
5.8481,-2.473845102961353,Be6P4H8O20,mp-24674
0.37760000000000016,-0.5378112850000001,Sr8Ge4,mp-2576
1.2989,-2.5958713324087017,Li2Mn2P4O14,mp-26981
4.536199999999999,-2.5099514902060447,Bi4P12O36,mp-27135
0.6704999999999997,-0.16949534791666684,Te16Br8,mp-27648
0.6558000000000002,-0.05941186833333341,Te16I8,mp-27655
2.0358,-1.4164509623825,Na2Sb2Cl12,mp-28177
1.3206,-0.99031973682375,Fe2Se2Cl14,mp-28189
2.1175,-1.6368236861720038,Cs12In4O12,mp-28381
3.1591,-0.7805595141666668,Ga8Br16,mp-28384
2.9164000000000003,-2.2423852140476197,Li8Ge10O24,mp-28623
3.5772000000000004,-1.2209482535555554,K6Ga6Br24,mp-28680
0.38519999999999976,-0.4972171440234376,Tl10Se4Br2,mp-28921
2.0816,-1.0270210165474998,Li5Br2N1,mp-29025
0.13309999999999975,-0.8928949960818183,Ba10Cr2N10,mp-29082
2.1662,-1.6840094991894532,V8Se12O44,mp-29173
1.5625,-0.428383282777778,In4Te4I4,mp-29234
1.7363,-1.2660285101346984,Cs2S2,mp-29266
0.6055999999999999,-0.2970164155476187,Na2Sn2P2,mp-29529
2.8102,-2.025365400333333,Na8Ge2O8,mp-2970
0.23270000000000035,-0.3533837593055556,Na40Sn8Sb24,mp-29739
3.4506,-0.25858620650250064,Zn4C4N8,mp-29826
0.7894000000000001,-0.4320548832368751,Cu4Se8Cl4,mp-31038
1.1865,-2.5210728792299117,Mo4P6O22,mp-32108
1.2717999999999998,-1.7096628168779933,Cs4Ti2S6,mp-3247
5.819099999999999,-3.1986813554761904,Be12Si6O24,mp-3347
1.9925,-2.173339979274207,In14Ga3Pt2O8F15,mp-40373
1.2832999999999997,-1.2027142309635417,Er4Ag4Se8,mp-4044
7.798399999999999,-3.335727451688927,Cs4B4F16,mp-4057
7.2832,-4.064777319421428,Ba4Al4F20,mp-4376
2.4407,-1.9662670327343748,Li8Se2O10,mp-4426
2.3561,-1.2183417154375011,Al6In6S18,mp-504482
0.9863,-1.5254908920722825,Rb4Pb8O14,mp-504811
1.3273,-0.7747829597499999,Na8Hg12S16,mp-505121
5.1027000000000005,-3.030894284285714,Ca21V14O56,mp-532028
5.4136000000000015,-2.6826971139026585,Cs4Pr4S8O32,mp-540686
4.5535,-1.4964119940896552,Cs8H40O24,mp-541005
4.540100000000002,-3.2928334217708346,Y4Be4Ge2O14,mp-541040
3.8315,-2.4995615811626983,Na2Ge4P6O24,mp-542919
0.6713999999999993,-2.236490346201998,La2Ta2N4O2,mp-550514
2.6495,-2.202536601944445,V2Cd1O6,mp-550622
3.751,-3.4482111735500003,K2La4Nb2O12,mp-554034
3.6624,-2.522445418743369,Cs2Al2As2O7,mp-554206
1.4146,-2.646822987185604,Rb1Cr1F6,mp-554311
2.952,-2.3204239411631957,Ni12B28Br4O52,mp-554323
5.6395,-3.558547260172667,Na1Zr2Ni1F11,mp-554702
4.3763,-2.499455253433958,Tb4Se4Cl4O12,mp-554903
1.3437,-1.583950595178571,As8O20,mp-555434
3.6798,-2.600405752246667,Sb4Mo4O4F36,mp-555680
2.0128,-0.4745726349,Hg6As16S16Br12,mp-555833
4.8081999999999985,-2.7085999034206347,Ba4Zn6P20O60,mp-555980
8.1454,-3.56915539037303,Sr8B16F64,mp-556106
1.7611,-2.0107017158004035,K16Pt8S20O80,mp-556254
2.5383,-2.9922889081944444,Ba2Nd4Pt2O10,mp-556525
4.8746,-2.75055451572069,Rb8Te8F40,mp-556785
0.1379,-2.8569243177569996,Na16Eu8C8O24F24,mp-556836
3.8254,-2.0605853719866065,Ni4Bi4P4O20,mp-556993
0.9518,-1.5654317639388022,V4Ag4Se4O20,mp-557135
4.1531,-2.5265954851213936,Cs8Zn8P8O32,mp-557693
3.3104,-2.90470920319885,Rb2Mn1F6,mp-558111
1.5569000000000002,-1.627053873966667,K8Ba2V4S16,mp-558121
4.5655,-3.1672083825208346,Na4Zr2Si4O14,mp-558191
2.8927,-2.427410664427084,Ba8V16Cd12O60,mp-558221
2.0743,-2.1652534287137497,Mn2V2Bi2O10,mp-558892
2.9455,-3.5139276626013336,Nd8Ti12Cl8O32,mp-559560
1.2244,-1.3014440090786636,Rb32Al4Au12O16,mp-559984
1.8945,-1.6566135037142868,K16Zr8S32,mp-560331
0.8583000000000003,-1.8581039998809523,Li8Bi2Pd1O10,mp-560555
1.8912,-1.4815335909739584,Na1Fe1Se2O8,mp-561519
4.5425,-2.2081579380000007,K4Li4C4O12,mp-562137
1.4083000000000006,-0.04080407937500041,Si8B24,mp-569128
0.6382000000000003,-0.9803884802380954,Yb22Ga2Sb18,mp-569811
1.9289,-0.7969565647656255,Zr2Hg6Se4Br12,mp-569970
4.293900000000002,-1.5490827671733332,Tl4Ga4Cl16,mp-570609
2.3838,-0.476039868611111,Ga12I24,mp-570738
2.9267000000000003,-1.1733192374214,Cs8I16O44,mp-572805
1.0421,-0.4570541654827586,Cs4Si2As4,mp-573721
0.4183000000000003,-0.3033419320833333,Ti2Ge2Te12,mp-574169
4.5826,-2.5407011635680687,Cs12La4Cl24,mp-582080
4.9842,-2.3759477868263814,Lu4P8H16N4O28,mp-601348
0.9969,-0.6700045626704552,Tl2Sn1As2S6,mp-6023
6.4639999999999995,-3.607299095755379,Cs2K1Y1F6,mp-6059
3.9730000000000003,-2.188629053948,Sr4H8O8,mp-625184
3.3641,-2.567394397222789,Na12In4P8O32,mp-6336
3.7687,-2.6072489224047617,Li6In4P6O24,mp-6425
3.023000000000001,-2.1727418969565218,Ba2Bi4Mo8O32,mp-642792
1.9731000000000003,-2.09908642478125,Na2Ge2Sb2O10,mp-6526
3.9829,-2.3352816571504995,K2S2O4F2,mp-6560
5.1026,-2.6160213142537585,K16P32Pb8O96,mp-667288
2.6094,-1.4208350140326784,Ta2As2P2Cl26,mp-672248
1.3268999999999995,-0.2989038501875001,Li48As112,mp-680395
2.0313,-2.5945243829739013,V12P16Pb8O68,mp-683863
3.6271,-0.3829277891641378,Rb12C24N36,mp-683918
1.4337,-1.4619093390760869,K10Co4O9,mp-690511
2.9967,-0.4723274370287177,Ba6Mg7H26,mp-697671
1.7536,-3.3900328688636368,Sm24Mo8O56,mp-705801
0.5323,-1.6940200703186203,K8Cu6As8H4O32,mp-707485
3.5239,-1.5448076786019649,K16H16Se16O64,mp-707536
3.7368,-1.6172777206486668,Na4Te4H8O14,mp-720921
5.2347,-2.9127191585918366,K4Be4P4O16,mp-7324
0.1072999999999995,-0.4635453810000002,Ca1Cd2Sb2,mp-7430
3.6842000000000006,-3.0966051419612066,Rb1Tm1O2,mp-7478
0.5081,-0.7083904672060188,K4Ag8S6,mp-7494
1.3813000000000004,-2.118747839065714,Li4Mn4Sb4O16,mp-755701
1.4655000000000005,-2.4591750332954563,Y4Pt4O14,mp-756347