band_gap,formation_energy_per_atom,full_formula,task_id
0.7894000000000001,-0.43205488323687513,Cu4Se8Cl4,mp-31038
0.0,-0.8457043490000004,Er4Pd4Pb2,mp-31090
0.0,-0.22680935250000012,Mn2Pd6,mp-31138
0.0,-0.6991186225000003,Er10Si6,mp-31167
1.1864999999999999,-2.5210728792299113,Mo4P6O22,mp-32108
0.0,-1.2533306527734376,La2Te4Se2,mp-4034
1.9925000000000002,-2.173339979274207,In14Ga3Pt2O8F15,mp-40373
1.2832999999999997,-1.2027142309635415,Er4Ag4Se8,mp-4044
0.0,-0.5498319455555563,Dy6Fe1Sb2,mp-4189
0.0,-0.9263921333333336,Er8Si12Rh4,mp-4289
0.0,-0.8878672259999995,Dy1Ge2Rh2,mp-4337
2.4406999999999996,-1.9662670327343748,Li8Se2O10,mp-4426
0.0,-0.7113023466666656,Pr2Sc2Ge2,mp-4738
0.0,-0.5556665758333331,Ca4Mg4Sn4,mp-4864
0.0,-1.3576772180208334,Zr2Ge2S2,mp-4997
0.0,-0.7090060072222215,Y2Ti2Ge2,mp-5042
0.0,-0.7864255229999998,Eu2Sb4Pd4,mp-504900
1.3273000000000001,-0.7747829597499999,Na8Hg12S16,mp-505121
0.0,-0.7693960077777781,Ce8Sc12Si16,mp-505512
0.0,-1.8481829742968738,Gd1Se1,mp-510404
0.0,-0.2061970343749997,Li26In6,mp-510430
0.0,-0.7132651059375004,Tb20Co4Sb8,mp-510592
5.413600000000001,-2.6826971139026585,Cs4Pr4S8O32,mp-540686
0.0,-2.0206870335833336,Ba6Ni2Ir4O18,mp-540907
4.540100000000001,-3.2928334217708346,Y4Be4Ge2O14,mp-541040
3.8315,-2.499561581162698,Na2Ge4P6O24,mp-542919
2.6494999999999997,-2.202536601944445,V2Cd1O6,mp-550622
3.7510000000000003,-3.44821117355,K2La4Nb2O12,mp-554034
3.6624000000000003,-2.522445418743369,Cs2Al2As2O7,mp-554206
1.4146,-2.6468229871856037,Rb1Cr1F6,mp-554311
2.952,-2.3204239411631953,Ni12B28Br4O52,mp-554323
3.6797999999999997,-2.600405752246667,Sb4Mo4O4F36,mp-555680
4.808199999999999,-2.708599903420635,Ba4Zn6P20O60,mp-555980
8.1454,-3.5691553903730306,Sr8B16F64,mp-556106
1.7610999999999999,-2.0107017158004035,K16Pt8S20O80,mp-556254
0.1379,-2.856924317757,Na16Eu8C8O24F24,mp-556836
1.5569000000000002,-1.6270538739666667,K8Ba2V4S16,mp-558121
2.8927,-2.4274106644270836,Ba8V16Cd12O60,mp-558221
2.0742999999999996,-2.1652534287137497,Mn2V2Bi2O10,mp-558892
1.8944999999999999,-1.6566135037142868,K16Zr8S32,mp-560331
0.0,-0.4812005716666672,Sb8Pt4,mp-562
4.5424999999999995,-2.2081579380000007,K4Li4C4O12,mp-562137
0.0,-1.0934774479166667,Gd2C2Br2,mp-567572
0.0,-0.5743513618333331,Tm4B16,mp-568143
0.0,-0.7263585499999996,Tm2Au6,mp-568247
0.0,-0.8570132160714284,Gd4Al18Ir6,mp-569472
0.0,-0.11772253583333381,Nd4Os8,mp-569630
0.0,-0.46716574500000024,Zr4Ga2,mp-569833
0.0,-0.5231143980000006,Sr1Ni2Sb2,mp-569881
1.9288999999999998,-0.7969565647656255,Zr2Hg6Se4Br12,mp-569970
4.293900000000001,-1.5490827671733332,Tl4Ga4Cl16,mp-570609
2.3838,-0.47603986861111103,Ga12I24,mp-570738
0.0,-1.0581967849999998,Y2Ga2I2,mp-571210
0.0,-0.5916207537616665,Sr8In4Cu3N5,mp-571541
0.0,-0.4757617462499999,Pr2Al2Si4,mp-571554
2.9267000000000003,-1.1733192374213999,Cs8I16O44,mp-572805
0.0,-1.1674694493055553,Ce6C2I10,mp-573743
0.41830000000000034,-0.30334193208333327,Ti2Ge2Te12,mp-574169
0.0,-0.673992483888889,Gd10Cu2Bi6,mp-581831
0.0,-1.165433014580357,Mo4P8N4Cl48,mp-582976
0.0,-0.3054623620000001,Nd4Mg2Ni4,mp-5925
0.0,-0.16243632333333302,Hf1In1Cu2,mp-600125
0.9969000000000001,-0.6700045626704552,Tl2Sn1As2S6,mp-6023
6.464,-3.607299095755379,Cs2K1Y1F6,mp-6059
0.0,-1.0966279844999995,Pr8Ni2I10,mp-618999
3.973,-2.188629053948,Sr4H8O8,mp-625184
0.0,-0.38282011944444366,Gd4In2,mp-638079
0.0,-0.7299556059375005,Ho20Ni4Sb8,mp-640383
0.0,-0.04840184368421101,Sb16Te3,mp-640862
0.0,-0.5020300625925924,Y6Al38Ni10,mp-642428
3.7687,-2.607248922404762,Li6In4P6O24,mp-6425
3.0230000000000006,-2.172741896956522,Ba2Bi4Mo8O32,mp-642792
1.9731000000000005,-2.09908642478125,Na2Ge2Sb2O10,mp-6526
0.0,-2.20175107203125,Lu1S1,mp-656
0.0,-0.5172553328472217,Ho1Ni2B2C1,mp-6646
0.0,-1.2543261996875001,La6Ge6Br4,mp-672231
0.0,-2.69207094625,Ba2Ca1Os1O6,mp-6739
1.3268999999999997,-0.2989038501875001,Li48As112,mp-680395
0.0,-0.5933073076699664,Cs20Mo12N30,mp-685609
1.4337,-1.4619093390760867,K10Co4O9,mp-690511
0.0,-0.4290891646666665,Sm2B4C4,mp-6916
0.0,-1.2026697357142855,Ce2P2Pd2,mp-7003
3.5239,-1.5448076786019647,K16H16Se16O64,mp-707536
3.7367999999999997,-1.617277720648667,Na4Te4H8O14,mp-720921
5.2347,-2.912719158591836,K4Be4P4O16,mp-7324
0.0,-0.4925786439999996,Sr1Si2Au2,mp-7365
0.1072999999999995,-0.46354538100000015,Ca1Cd2Sb2,mp-7430
0.0,-1.3368385650000008,Li2Co2Ni2O8,mp-754509
1.4655000000000005,-2.459175033295456,Y4Pt4O14,mp-756347
0.0,-2.9325731049047623,Li10Ti11Cr9O40,mp-769567
1.322,-1.923025350384285,Li8Mn12Ni4O32,mp-771112
0.39030000000000076,-0.8107198466233776,Sr2P12Pt8,mp-8507
0.0,-0.511248468611111,Pr4Ni4B16,mp-861608
0.0,-0.4514278599999999,Er2Ni1Ru1,mp-862615
0.0,-0.14458377749999984,Li1Ca2Al1,mp-862632
0.0,-1.5151675609400002,Sr2Mn1Zn2As2O2,mp-862748
0.0,-0.6823280081249994,Pm1Sn1Rh2,mp-862961
0.0,-0.25323584374999975,Nd2Mg1Al1,mp-864610
0.0,-0.2509415508333337,Nb1In1Ru2,mp-864788
0.0,-0.1950489318749984,Mn2Al1Re1,mp-864989
0.0,-0.009245216250000965,Mn2Ru6,mp-865045
0.0,-0.2594573525000001,Lu2Mg1Ru1,mp-865318
0.0,-0.5976179799999999,Lu1Zr1Ru2,mp-865434
0.0,-0.21979876375000007,Li2Ho1Tl1,mp-865624
0.0,-0.7493078102083324,Ti2Re1Ir1,mp-865717
0.0,-0.640229388333335,Ti2Mo1Pt1,mp-865803
0.0,-0.6339236395833332,Ti2Tc1Os1,mp-865876
0.0,-0.6836230899999993,Mg1Al1Ir2,mp-865921
0.0,-0.37189713624999987,Ba2Tl1Cd1,mp-866292
3.4844999999999997,-2.989810908255209,Ba6In2B6O18,mp-866313
0.0,-0.4120574699999999,Pr1Cd1Hg2,mp-867177
0.0,-0.4924904787500002,Ba2Cd1Pb1,mp-867333
0.0,-0.3877041525,La2Tl1Cd1,mp-867880
1.4219000000000002,-0.860219072921875,K6Sb2Se8,mp-8704
4.183999999999999,-1.2155040961066657,Na2Si4N6,mp-8973
0.0,-0.5120730659999999,Ba1Cu2As2,mp-9247
3.9754000000000005,-2.0664803137702776,Li4Fe4H4S4O20,mp-943462
0.0,-0.36331416142857165,Ba3Al2Si2,mp-9578
1.8976000000000002,-0.6321147547142854,Na8Li4Al4P8,mp-9719
3.6062,-2.834027385937501,Sr4Mg2Ge4O14,mp-972387
0.09419999999999984,-0.47803341004926075,Rb2Te6Mo6,mp-975237
0.0,-0.013752034166665558,Hf5Sc1,mp-976128
0.0,-0.36702992499999976,Ho1Er1Ru2,mp-976311
0.0,-0.6205107587499992,Zn1Ga1Rh2,mp-977362
0.0,-0.34728865416666643,Tb1Ag1Hg2,mp-977387
0.0,-0.25842098000000036,Mg1Nb1Ru2,mp-977430
0.0,-0.7003195266666666,Y10In8Pd4,mp-980936
0.0,-0.0011447199999992108,Hf1Zr1,mp-983459
0.0,-0.8260075831562503,Nb6Cr2Se12,mp-985289
0.0,-0.285649084431818,Ir3Se8,mp-9888
0.0,-2.7979445797553795,Cs2K1Pb1F6,mp-989585
0.0,-1.7752371160416667,Ba1Ag1O2,mp-996990
0.0,-0.6128194600000003,Sr2Pd2,mp-999143
0.0,-2.025592596207143,Zn4Cu4F20,mvc-3418
0.0,-1.1285501799999995,Dy1Sb1,mp-1007
0.41830000000000034,-0.9501425894759997,Sr3As1N1,mp-1013555
0.5028999999999999,-0.46479585715499994,Ca1Ga1Ge1H1,mp-1018093
0.0,-1.7070420003472229,Ba1Ti2As2O1,mp-1018735
5.5447,-2.837141132057292,Li12B44O72,mp-1020014
0.26560000000000006,-0.4194546441176474,Ce1Fe4As12,mp-1021509
1.8901000000000001,-0.8929805836223957,Na16Zn12Se20,mp-1024048
0.0,-0.5271122004761912,Tm1Ti2Ga4,mp-1025238
0.0,-0.6114076340000004,Al3Ni2,mp-1057
0.0,-0.82384901,Gd1Au2,mp-1063174
0.0,-0.7483034093333331,Zr1B1Rh3,mp-1068661
0.0,-0.3455015259999996,Sr1Cu2Sn2,mp-1068891
0.0,-2.9775750285,Tb2Bi1O2,mp-1068954
0.0,-0.76580491,Ho1Si3Ir1,mp-1069461
0.0,-0.54885078975,Tm1Rh3C1,mp-10714
0.0,-0.18256490277777773,Ce2Ag4,mp-1071422
0.0,-0.5112866833333326,Hf2Cu2Ge2,mp-1077453
0.0,-3.15943274925,Eu2Nb2O6,mp-1078341
0.0,-0.1827880019999995,Ta6Be4,mp-1078957
0.0,-0.821504113125,La2Si4Ni2,mp-1079037
0.0,-0.8030631822222224,Lu3In3Pd3,mp-1079085
1.2072,-0.309914349584821,Cd2P2Se6,mp-1079559
0.0,-0.5824007716666668,Ce3Cd3Pd3,mp-1079977
0.0,-0.7445602320000007,Nb4B6,mp-1080021
0.0,-0.7561627838888888,Hf3Ge3Ru3,mp-1080489
0.0,-0.7059546076666663,Ta4Cr2B4,mp-1080757
0.0,-0.9452315349760007,Nd3Pb1N1,mp-1094101
0.0,-0.6113810309999999,Tm4Ni4Sn2,mp-1095204
1.2489999999999999,-0.8321702434635417,Li4Sn2Se6,mp-1095291
0.0,-0.9426686208333331,Li4Eu4Sb4,mp-1095425
0.0,-1.1691310775000001,La2As2Rh2,mp-10956
0.0,-0.7662165559999998,Yb4Ge4Ir2,mp-10998
0.0,-0.36824602625,Tb1Cd1Hg2,mp-1100768
0.0,-0.9279206789285711,Hf4P8,mp-1102018
0.0,-0.26063631166666684,Ce4Os8,mp-1102302
0.0,-0.7722833433333337,Hf4Fe4Si4,mp-1102314
0.0,-1.1810225865476187,Sm4Ni4P4,mp-1102777
0.0,-0.7859051816666659,Pr4Ge4Ir4,mp-1103320
0.0,-0.8185394600000002,Nd4Ge4Ir4,mp-1103641
0.0,-0.4227719678571426,Ni2B6W6,mp-1104181
0.0,-0.5982088571428571,Lu3Ga9Pd2,mp-1104225
0.0,-0.9826354714285718,Tm6Pd8,mp-1104675
0.0,-0.7414695354166665,Lu10Ge6C2,mp-1105603
0.3448000000000002,-3.65853113525,Eu4Zr4O12,mp-1106293
1.9664000000000001,-1.3623118869980242,Cs2Pr2Cd2Se6,mp-11118
0.0,-0.40417774636363646,Sm2Zn6Ge3,mp-11668
2.2066999999999997,-1.4246569102804172,Na1Co2H3Se2O10,mp-1173735
0.7755999999999998,-1.2362068592968747,Sm4Cu4Se8,mp-11793
0.0,-0.6599260624999994,Ce1Mg1Au2,mp-1183717
0.0,-0.42746012624999974,Er1Lu1Ru2,mp-1184363
0.0,-0.3628709850000007,Gd1Lu1Ru2,mp-1184510
0.0,-0.3653790825000005,Gd1Dy1Tl2,mp-1184527
0.0,-0.4298883050000004,Gd1Zr1Ru2,mp-1184742
0.0,-0.34402383210526244,Y1Co12B6,mp-1188251
0.0,-0.8387157163492063,Zr10Sn6P2,mp-1188507
3.1287,-1.574974761112069,Cs6La2I12,mp-1188821
0.0,-0.7267361888095238,Tm2Fe12P7,mp-1190707
0.0,-0.7014171195454544,Lu6Si4Ni12,mp-1191707
2.2001,-2.550828702403847,Ba2Y2Zn6Ga2O14,mp-1192369
0.0,-0.6105767683928575,Nd6Sn10Au12,mp-1192602
0.0,-0.26937352272727305,Eu16In6,mp-1192827
0.0,-0.34066403500000014,La4Ni20Sn4,mp-1193093
0.0,-0.6340263170000005,Nb8Si14Ni8,mp-1193423
0.21320000000000006,-0.6105426473333334,Pr8Mg10Ge12,mp-1193603
0.0,-1.111771550339999,Zr16Ir8N4,mp-1193886
5.1404,-3.1575685111581513,Ba12P12Cl4O40,mp-1194911
2.8644999999999996,-1.786569187133334,K4In4Te8O24,mp-1195253
1.1564999999999999,-1.2254792318687497,Ba24Sn24Se52,mp-1196224
4.628299999999999,-3.005655015302727,K10In6F28,mp-1196816
0.0,-0.5924376877500009,Dy8Re12Si20,mp-1196838
0.685,-0.45272015092373113,Rb4Sb12Se20,mp-1198114
1.9578000000000002,-0.4760242685990088,Sr4P44H112N36,mp-1198273
0.0,-0.4090247157499995,Ho6Co8Ge26,mp-1198318
0.0,-0.4899336216666662,Ca12Ag12Ge12,mp-1200102
0.0,-0.7931332150000006,Yb5Zr3Ni16As12,mp-1202354
0.0,-0.7311475772222215,Ho8Nb12Ge16,mp-1202575
0.0,-0.3371928995000005,Dy6Ge26Os8,mp-1204800
0.0,-0.7302574669999992,Y4Mg2Si4,mp-1205496
0.0,-1.5632176762499999,Eu2Br6,mp-1205810
0.0,-0.45147377974999897,Er2Re4Si2C2,mp-1205882
5.333600000000001,-3.0124814920155556,K2Sn1F6,mp-1205960
0.0,-0.9411844538888879,Pr3In3Pt3,mp-1206016
0.0,-0.3685750395238096,Tm1In5Rh1,mp-1206161
2.5689,-3.49516335975,Ba2Sc1Nb1O6,mp-1206644
0.0,-1.022863528333333,Y1Bi1Pt1,mp-1206679
0.0,-0.9263002128571429,Yb1P2Pd2,mp-1206959
0.0,-2.5518796470833345,Ba1Dy1Fe1Cu1O5,mp-1207068
0.0,-3.092715151354168,Yb4Be4Si2O14,mp-1207610
0.0,-0.7703076530422222,V10Si6N2,mp-1207841
2.6233999999999997,-2.888376742000001,Y12Ga12Fe8O48,mp-1208208
0.0,-0.5638872798484855,Ti4Cr8Si10,mp-1208248
0.0,-0.28594000669811315,Tb12Al78Cr16,mp-1208616
0.0,-0.40415039097222233,Sm20B20C20,mp-1208749
3.1936000000000004,-2.6085347237787353,Rb2Sc2W4O16,mp-1209239
5.3969000000000005,-2.7583601051286775,Pr4S6O24,mp-1209756
4.1585,-3.128369396814104,Na8Nd8B8O28,mp-1210464
0.0,-0.5738936033333332,Mg6B4Rh10,mp-1210641
0.0,-0.7601262813888883,Lu16Mg4Ge16,mp-1210685
0.0,-0.3616333508333322,Zr4Re8,mp-12109
0.0,-1.6972645900462975,Nb2Ni22B8O40,mp-1211101
5.336,-3.0158748819162993,K2Rb4In2F12,mp-1211320
0.0043999999999999595,-3.2249265743062505,K8Yb4F20,mp-1211487
3.3952999999999998,-2.767374416881773,K2Rb1Lu1V2O8,mp-1211699
0.044700000000000184,-1.5070313278285714,K8Zr6Mn1Br20,mp-1212020
1.5633,-0.9137538785096427,Hg6Se4F4,mp-1212164
1.7751000000000001,-0.9276652425638893,H32Ru4N12Cl20O4,mp-1212914
0.0,-3.400770615937501,Eu3Al2O7,mp-1212916
0.0,-0.3118410115094338,Dy12Al86V8,mp-1213242
0.38790000000000013,-2.441544247187501,Gd12Sc4S24,mp-1213337
0.0,-0.7229494695238097,Er42In8Rh20,mp-1213466
0.0,-0.601014583809523,Ce11Ni4Ge6,mp-1213990
0.0,-2.045561367361112,Ti2O1,mp-1215
0.0,-0.6236942998571429,Yb1Zn1Cu1P2,mp-1215494
0.0,-0.24848256692307674,Tb14Ag51,mp-1217874
0.0,-2.912511142815713,Sr3La1Mn2O8,mp-1218441
0.0,-2.360824447250001,Sr2Fe1Ru1O6,mp-1218831
2.1542,-1.9887368122554354,Sm6Mg1Ge2S14,mp-1219149
0.0,-2.9360537864999996,Sm2Sb1O2,mp-1219180
0.9054,-0.46824999047999977,Re6Br16Cl2,mp-1219236
0.0,-0.5488629883333337,Sc2Ga3Cu1,mp-1219423
0.0,-0.08799071125000069,Re1Os1,mp-1219509
5.2065,-3.4225479132812495,Nd3Si3B3O15,mp-1220077
0.45100000000000007,-0.770476186,Na4Eu1Si2Te6,mp-1221196
0.0,-1.7741369357895835,Na19Zr11S30,mp-1221560
0.0,-0.18850286333333224,Mn8Nb3Al1,mp-1221748
0.0,-0.23700813749999972,Li2Mg1Ga1,mp-1222647
2.1567,-2.6385179913252,K1Cr12Si8Cl1O28,mp-1223595
4.518000000000001,-3.0384113130989006,K2Zr1P2O8,mp-1223853
1.9214999999999998,-2.4964184381785723,K8Mo8P8O44,mp-1224145
0.0,-0.39443015687499994,Ce2Tl3Sn3,mp-1226905
0.0,-0.5852734901666669,Ca1Yb3In2Ge4,mp-1227085
0.0,-0.6223406051567395,Cs3Cr20Se32,mp-1228215
0.0,-2.5668829925940995,Cs2Fe2Cu2F12,mp-1228920
0.30349999999999966,-1.90144755915625,Pm8Se12,mp-1232181
3.4086999999999996,-1.330368649984326,Cs8Pb2I12,mp-1238804
0.41439999999999966,-2.9010735747500007,Li2La4Os2O12,mp-12451
0.0,-0.756375981734285,Ca6Rh2N6,mp-1247259
0.0,0.0,Pt1,mp-126
0.0,-0.4093229411111115,Lu3Ni3Pb3,mp-13074
0.0,-0.4461700960000002,Lu1Mn2Ge2,mp-13405
0.0,-0.15455041794117655,Ca1Fe4Sb12,mp-13464
0.0,-2.7843527283925003,Ba1Ir1F6,mp-13545
0.0,-0.4066530270000001,Ba2Zn4Sn4,mp-13920
3.0668,-2.3782004490897455,Na16Ti8Zn16Ge8O56,mp-14065
0.0,-0.7423614044444449,V1B2,mp-1491
0.0,-0.5646402511111113,Y1B2,mp-1542
0.14290000000000003,-0.4600865616666665,Li2Ag1Sb1,mp-16238
3.9069000000000003,-2.6238847410208344,K4Zr2Ge4O14,mp-16871
0.0,-0.8150476243253971,La2Ni10P6,mp-16958
2.1919,-2.9645564288636366,Sr6Er2Rh2O12,mp-17149
0.0,-2.3932086452500005,Ba6Ca2Ir4O18,mp-17448
4.036099999999999,-1.9312998086875013,Cd4S8O28,mp-17586
0.0,-0.36105239937499967,Ta10Ge6,mp-17593
0.0,-0.2762413262500001,Ti6Al2,mp-1823
1.4227000000000003,-0.9173233757272725,K12Mn2Te8,mp-18246
2.2831,-1.9420015075000012,Co2W2O8,mp-19092
1.2109999999999999,-2.34140082756091,Mn2V2O7,mp-19142
3.9072999999999998,-3.2006057210144823,Mn4Al8Si10O36,mp-19477
0.0,-0.27120809749999975,Er1Cu1,mp-1955
0.0,-0.9054062912500003,Ho1Pd3,mp-1979
0.0,-0.2453649452380954,Ce1In5Co1,mp-19961
0.0,-0.42306524200000056,Eu1Al2Ge2,mp-20151
0.0,-0.1281889833333333,Zr2Mo4,mp-2049
0.0,-0.45283856272727263,La2Zn6Ge3,mp-20624
0.0,-0.40565534124999925,Ce3Sn1,mp-20735
0.0,-0.6131478858333329,La2Co2Ge2,mp-20761
0.8193000000000001,-0.37356287452380954,Zn1In2Te4,mp-20832
0.0,-0.40792802499999975,Y2Cu2Pb2,mp-20865
0.0,-0.49873743940909065,Na3Ge4Pt4,mp-21199
0.0,-0.6694064635416663,La2In4Pd2,mp-21367
0.0,-2.5534288532500007,Eu3Au1O6,mp-21389
0.0,-0.31534426875000054,Fe3Si1,mp-2199
0.0,-2.21053891375,Sr4Ru4O12,mp-22390
0.0,-0.7061253613333335,Sc4Fe2B4Ir10,mp-22425
0.0,-0.6563091887499999,Al6Ir2,mp-2294
1.7043,-2.8063387779999998,Sr4Nd2Bi2O12,mp-23093
3.5961,-3.217491416136923,La6W2Cl6O12,mp-23117
3.0024999999999995,-1.6257981136625,K2Sn4Cl10,mp-23539
0.0,-0.05226150930999918,Cr1H1,mp-24287
4.662599999999999,-2.579661107411147,Rb4Ga4B4P8H4O36,mp-24761
0.0,-0.49023322000000036,Si2Mo1,mp-2592
0.0,-0.6569046762734381,K1Cu4S3,mp-27677
4.1295,-3.1344265756249996,Sr2Be6O8,mp-27791
2.8632999999999997,-0.7919066505362502,S8Cl8,mp-28096
0.0,-1.7968966358614296,Gd12C4Cl12,mp-28133
0.0,-0.5210640321562494,Cr4Se6,mp-2832
0.0,-3.4496913931652706,Cs4Tb4F20,mp-28449
0.0,-0.9132279813199999,Ca10Ga4N8,mp-28489
1.1700000000000002,-0.605648933910714,K2Sn4Se8,mp-28769
5.1672,-3.5510153082499993,Y6B6O18,mp-29205
3.2615000000000003,-2.951578403375001,Gd12Ga20O48,mp-2921
1.2286000000000001,-0.8987284444999993,Ta12Br28,mp-29412
4.3281,-2.923723861638889,K12Si12O30,mp-29825
0.0,-1.1117238611955556,La10Sn6Cl2,mp-30210
0.0,-0.7055438908333329,Dy1In1Au2,mp-30374
0.0,-1.0360235016666657,Dy1Bi1Pt1,mp-30453
0.0,-0.14077383276315764,Na30Sn8,mp-30794
0.0,-0.676051910555555,Y1B2Ir3,mp-31098
0.0,-0.1338684541666666,Cd2Ag1Au1,mp-31170
5.0884,-2.1982139148522735,Na4S4O14,mp-31269
0.0,-0.9922144137499993,Ce2Si4Pt2,mp-3284
1.142,-0.510687475083128,Cs2Sb4Se8,mp-3312
4.4803,-2.5104947272817455,P16Pb8O48,mp-3476
0.0,-0.5258051099999994,Ce4Mg4Si8,mp-3545
2.4354999999999998,-2.4299216002675004,Sn1Hg1F6,mp-36508
0.0,-0.12220643124999953,Pr1Mg3,mp-428
0.0,-0.7128634716666671,Ca2Au4,mp-443
4.199400000000001,-3.4968165242857148,Ca8Si4O16,mp-4481
3.079699999999999,-3.609824017312499,La2S1O2,mp-4511
2.2142999999999997,-2.643589495227273,Sr8Pt2O12,mp-4598
0.0,-3.1274165075000004,Ce2Te1O2,mp-4873
3.7834,-3.0523004527518514,Li3Mn3Ga3F18,mp-504460
1.899,-1.5004750711379313,Rb8Pb4O8,mp-504598
0.0,-1.523863656197379,Cs2Co2Cl6,mp-504708
3.3038,-1.4675149165912897,Nd2H24N6O30,mp-504828
0.0,-0.507322364999999,Ce2Mn2Si2,mp-505331
0.0,-0.38581394785714296,Ni20Sn10P6,mp-510445
0.0,-0.34588720675781204,Tb12Os5C15,mp-541859
0.004099999999999326,-0.6232518359374994,Ce20Ge8Rh4,mp-542005
5.2635,-2.791974353577814,Rb4Al4B4P8H4O36,mp-542130
0.0,-0.7379638268421055,Sc10Co8Si20,mp-542493
2.6810000000000005,-1.5659709002884625,Bi20I4O28,mp-554445
2.2108,-0.9480909541979171,K8Ge8Au8S24,mp-554859
1.3942999999999999,-1.489044914758772,Ti16S32Br24O4,mp-556341
1.9434000000000002,-2.9459997923139993,K2Cr2F6,mp-556365
1.2593999999999999,-1.2737293190842642,K16V4P8S36,mp-556552
3.8120000000000003,-2.205790339725,Na6Li2W2O10,mp-557309
2.7561999999999998,-1.604802908897059,Ni6Te2Mo4O22,mp-557988
2.9158999999999997,-2.9488592462036003,Ca2Mn8Si10O30,mp-558800
2.0347999999999997,-2.320015188694325,Cs1V1S2O8,mp-559316
1.8005,-1.7907964118692599,Sc1Cr2Ag1H4O10,mp-559606
1.0065,-2.507520247942,Sr4Mn4O12,mp-559975
0.0,-3.0976956932329665,Rb2Na1V1F6,mp-560671
2.5479999999999996,-1.8284269325000007,Nd6Si4S16I2,mp-561126
0.0754999999999999,-1.473897921190477,Ce8P8S32,mp-561261
1.4405000000000001,-2.7098117735535707,Nb4Co2P12O42,mp-562076
3.0746,-1.9451694742578134,Mo12S12O72,mp-565836
0.0,-1.0493269196349995,Ce18Sb32Cl6,mp-567514
0.0,-0.7203151562500002,Ta12Pt36,mp-567638
0.0,-0.7400068247222222,La3In3Rh3,mp-568539
0.0,-0.29177447650862076,Rb6Bi2,mp-569095
0.0,-0.07929694083333327,Mg3In1,mp-569125
1.2839999999999998,-1.3883360717968753,Tb1Tl1Se2,mp-569507
0.0,-0.7708745109999999,Ba2Bi3,mp-569529
0.0,-0.5700738388888892,Er2Ag2Sn2,mp-569724
0.8347000000000002,-1.2156138960267857,Ba4Ge2Te4Se4,mp-570803
0.0,-0.2872556561428574,K2Sn6Au6,mp-570936
1.2429999999999999,-0.9362058929202582,Cs4Mn2Se4,mp-573947
1.3272,-1.396957046961207,Rb1Nd1Te2,mp-5808
2.3785,-1.213126847862069,Cs12Cu8Br20,mp-582423
0.0,-0.8706990231122447,Ce4P8Pt16,mp-607725
0.8115999999999999,-0.9445656624659863,Sr12In4P12,mp-616026
0.0,-0.5139187403472221,Dy1Ni2B2C1,mp-6223
0.0,-0.9417050330434793,La18B6C12Br10,mp-624186
4.1593,-2.9450567821549996,Nd2H2O4,mp-625359
1.4211000000000003,-0.7745272078166664,K6Na2Sn6Se16,mp-628185
0.0,-2.6456630315833336,Ba6Tb2Ru4O18,mp-6345
2.8533999999999997,-2.06470241090625,K16Zn8Ge8O32,mp-6386
0.0,-0.12268141444343615,Rb16In22,mp-640712
0.20159999999999956,-0.3459474291375,Mg4Co2H10,mp-642660
5.3245000000000005,-3.2048885270625,Sm16B48O96,mp-645338
0.0,-0.38124268862068983,Sc2Ni21B6,mp-647205
0.0,-0.3975075433750007,Tb4Al36Fe16Si24,mp-6563
0.3182999999999998,-2.8832973092499996,Li2La4Ru2O12,mp-6644
0.0,-2.481907097,Na2Sr6Ir2O12,mp-6662
4.9274000000000004,-2.8914377538061236,Na12Mg12P12O48,mp-6699
0.0,-1.5372027044642866,Ru4Pb4O13,mp-674149
2.9901000000000004,-2.5609991868499997,Na4Ca8Mg8As12O48,mp-677573
0.0,-2.6137785375367657,Ba17Yb16Zn8Pt4O57,mp-680165
0.0,-0.8504933518571427,Ca1P2Pd2,mp-6926
2.1864,-2.656661660634921,Ca2Fe3Sb1P6O24,mp-695492
2.4133999999999998,-1.266463918256466,Cs2Na2S2,mp-6973
2.4304,-2.031966821617648,Fe16Mo24O96,mp-705435
4.5474,-3.2904608499999997,Li4Tb4O8,mp-7137
0.0,-1.724201989166667,Cr1Ir1O4,mp-753633
0.0,-0.3292052974999997,Nb10Si2Sn4,mp-7557
4.7385,-1.297509412436318,P6H60N14O24,mp-759344
0.9666999999999999,-2.5761054196590916,Tb4Pb4O14,mp-769211
1.9194999999999998,-2.381786792442,Mg2Mn2O6,mp-770618
2.3797,-2.099773671520562,Bi18P6O42,mp-775485