band_gap,formation_energy_per_atom,full_formula,task_id
2.0468,-2.5518753372630765,Sr4Mn8V8O32,mp-1194563
0.7532999999999999,-1.011332051964286,Sr24Ga8As24,mp-1194661
3.8268,-2.8957915401594825,Rb16Si40Ni8O96,mp-1195212
1.6852000000000005,-1.8838431599479168,Ba16In4Ag4S24,mp-1195568
0.1644,-2.401250685876525,Ho4Nb4S14O60,mp-1196010
1.8678,-1.5638494007395205,Cs16In4O14,mp-1196865
6.1441,-0.42608487988324906,Rb4Y4B16H64,mp-1201985
0.15430000000000002,-2.39998041246189,Er4Nb4S14O60,mp-1202070
2.1729,-1.9338316302708336,Pr16Ga4Sb4S36,mp-1202783
0.6539999999999999,-1.3064663517592592,Ba4Nd2In2Te10,mp-1205400
0.042400000000000215,-0.4582141366666666,Yb8Si4,mp-1207599
2.6192,-2.231463008020833,Sm4S4Br4,mp-1208844
3.4705,-2.6482515962787354,Rb2Pr2W4O16,mp-1209276
4.0386,-1.8787318772737067,Rb8Pr4Br20,mp-1209488
3.0826,-1.4845773978987071,Rb8Nd4I20,mp-1209575
1.9481,-0.8653154290024629,Rb12Sb8I36,mp-1209693
3.0088000000000004,-2.90569218225,Pr12Ga20O48,mp-1210032
4.2408,-3.1517339302756424,Na8Sm8B8O28,mp-1210364
0.14040000000000008,-3.4230534884210524,Lu5Re2O12,mp-1210574
0.05369999999999964,-0.3217548020833334,Lu16Cd4Ni4,mp-1210662
1.9856,-1.8164352129911117,Mn24Te20O64,mp-1211172
4.044600000000001,-2.665244793152755,K2Mn2P6O18,mp-1211527
0.4778000000000002,-1.6419959326499998,K2Co6Cu2As6O24,mp-1211719
0.08030000000000026,-3.1601913080092596,Eu8B8O20,mp-1212596
0.2809000000000008,-2.1290262274375005,Dy12Cr4S24,mp-1212952
0.2603,-2.91550665125,Ca4Tm2Ru2O12,mp-1214117
1.7508,-2.7653426032499997,Ba2Pr1Bi1O6,mp-1214573
2.4905,-2.814648658417083,Ba6Sr4Re6Cl2O30,mp-1214717
1.6784000000000003,-1.5983476561818182,K12Mg2O8,mp-12171
0.30979999999999963,-2.792091047750001,Sr2Pr2Mg2Ru2O12,mp-1218058
3.3586,-2.4452136617389466,Sr8Te6Cl8O16,mp-1218587
2.392,-2.9508858580500004,Sr10Mg5Mo3W2O30,mp-1218906
1.9154,-2.0173995412101715,Sm18In2Si6S42,mp-1219368
2.9248000000000003,-2.1030674048124998,Na1V2Bi3O10,mp-1220913
3.114,-1.7406933270807703,Na12As16H20O56,mp-1222204
0.8087,-1.7588580948464292,Li5Mn5Se8O24,mp-1222696
2.9732000000000003,-2.829730737144,K1Mg3Al1Ge3O10F2,mp-1223527
1.3602000000000003,-1.5386661813547753,K7Rb5Fe4O10,mp-1223738
1.615,-1.1603051231894528,K6Zn4Sn5S17,mp-1223803
3.6975,-2.382657849548872,Bi2P6Pb6O24,mp-1227709
6.3018,-3.33345552165538,Cs4Na2Sc1Ga1F12,mp-1228955
0.3268000000000004,-1.2494865675246305,Rb1Sc5Te8,mp-13336
3.7279,-3.0962747687500016,Er8Ge8O28,mp-13643
0.9263,-2.589444616764,K2Na1Cu1F6,mp-13797
1.8902,-2.380753865793333,Li4Pd2F12,mp-13985
5.7917000000000005,-3.423060240267501,Ba1Ge1F6,mp-14006
1.0183000000000004,-0.916964491369048,Ba32Ge8P32,mp-14215
3.8436,-3.333641208046876,Ba18Tm6B18O54,mp-14385
0.8316999999999997,-3.2975989863750024,La8Ta12S8O32,mp-14880
2.9496,-2.8481833296436365,Na16Zn8Fe8F56,mp-15548
0.030600000000000183,-0.5383330358333334,Sr4Mg4Ge4,mp-15643
0.8922999999999999,-0.547193687108571,Sr2Li8N4,mp-15845
5.6995,-2.7916851580698534,Y8S12O48,mp-16025
2.8718000000000004,-2.529937308003248,Ca2Co6P8O28,mp-16803
4.263,-3.633942642946112,Zr6Tl4O2F24,mp-17315
0.9387000000000004,-1.00939854234127,Ba20P16,mp-17566
1.0198999999999998,-1.5373497151302082,Sr4Pr4Cu4Se12,mp-17660
1.2409,-1.49871624251923,K4Na8Co4O10,mp-17724
2.1861,-1.4422777371657287,Rb6Sm2P4S16,mp-17894
5.0889999999999995,-3.082009372520408,K4Sr4P4O16,mp-17975
1.4918999999999998,-0.5595532740625005,W2Se4,mp-1821
0.9348,-0.7954223540079366,Sr12Ge8P16,mp-18351
2.7735000000000003,-1.7598254433680565,Ba8Ga8S20,mp-18421
3.7232,-3.113674554910714,Ba2Si6Sn2O18,mp-18502
2.4732000000000003,-2.5672304206850654,Na4Fe4P8O28,mp-18774
1.0699999999999998,-2.5568135209047065,Ba8Mn6O20,mp-18791
3.0413,-2.427536288850001,K4V4O12,mp-18815
1.9572,-2.2736573072499997,Sr2Ni1Te1O6,mp-18908
0.5069999999999997,-2.6231047611363625,Sr3Fe2O6,mp-18924
3.2253,-2.9663716662499997,Ba2Mg1W1O6,mp-18986
2.971,-3.2109005266666664,Y2V2O8,mp-19133
0.010299999999999976,-1.167909843667143,Ba4Mn4Sb4O2,mp-19213
1.9872,-2.9599161296999994,Na2V2Si4O12,mp-19287
2.3089,-2.625039732583333,Cr2B2O6,mp-19299
0.9171,-1.5176735409635416,Ba2Gd2Au2Se6,mp-19942
0.14559999999999995,-1.9818479742857136,Gd2Pd4O8,mp-20102
1.8671000000000009,-3.9496218958333333,Ce1O2,mp-20194
0.3144,-0.18406909685714296,Zn24P16,mp-2071
4.446300000000001,-2.244266463394231,K2Pb1S2O8,mp-21099
0.01529999999999987,-0.5357456883333332,Y4Ni20Ge12,mp-21806
2.3251000000000004,-1.4610945188095241,Ba8In16S32,mp-21943
0.00219999999999998,-3.0991777820833333,Eu4B4O12,mp-22030
1.1095000000000002,-2.61162654508375,Pr4Mn8O20,mp-22802
0.12950000000000014,-1.4145048214285711,Pr4I10,mp-22854
4.1927,-1.7475509451724136,Rb1Br1,mp-22867
2.1773,-1.6575943932500004,Bi8O12,mp-23262
2.1709,-0.486762817621528,Ga2Se2Br14,mp-23376
1.6167000000000002,-0.6172321259791663,Sn24S12I24,mp-23386
0.7370999999999999,-1.3035640757499998,K2Ba8Bi6O2,mp-23571
0.6326999999999998,-0.1733378755701757,Ag8Hg28As16I24,mp-23592
4.3263,-3.0300264631739133,Na8Al6Si6I2O24,mp-23655
3.736,-0.27571931074666683,Mg2H4,mp-23710
4.7436,-0.1931850289966667,Na2Ga2H8,mp-23918
4.099,-2.122000201776667,Mg2Mo2H4O10,mp-24620
1.5876,-1.9189210627500008,Tl12Si4O14,mp-27228
1.4566999999999997,-1.6363996991666676,Bi4Te2O12,mp-27251
3.1323000000000003,-2.054176876278,Sb2Cl2F16,mp-27314
1.7965,-0.784387705570791,Zn4P6S18,mp-27656
1.9773,-0.9260573021767238,Cs4I8Br4,mp-27662
3.057,-2.0365522884722216,K20As12O40,mp-27674
1.7434999999999998,-0.7602459212222222,K4Te2I12,mp-27688
2.4269,-1.2274556740291669,Na12Ge4S14,mp-27752
1.0764,-1.9700878578333323,Li16Co2O12,mp-27920
3.3225,-0.7679601461414285,Be16H64N32,mp-28018
4.254,-1.5333737389508044,Rb2H6O4,mp-28264
5.2513,-1.3820690187800002,Sr2Cl4O12,mp-28477
0.0768999999999993,-0.5205070522222223,Ta16Si4Te16,mp-28509
3.9249,-1.3050899652142856,Na8Zn4Br16,mp-28830
0.19429999999999925,-0.7090000316071438,Cu4Pt8S16,mp-28888
4.5996,-0.597930496199524,P12H48N36,mp-28892
1.7903,-0.7542874500535716,K8Ge4Se16,mp-29022
0.6103000000000001,-1.221738952402299,Rb6V6Br18,mp-29314
3.1118,-1.6182254410406405,Rb12Bi4O12,mp-29525
1.7142000000000002,-2.614925909322689,Cs2Re2F16,mp-29842
2.4155,-2.6302786710416663,Y2Ag2O4,mp-30250
4.141400000000001,-3.4788924275,Sr4Al8O16,mp-3094
2.0753,-1.77058845425,Na12Fe4O12,mp-30947
0.8370000000000002,-0.11831852187500005,Cu4Te8I4,mp-31037
0.008599999999999497,-0.5322211270312502,Cu6As2S8,mp-3345
0.18880000000000047,-0.4794905186830362,Tl2Mo6Se6,mp-3411
4.021799999999999,-3.7669710366666656,Er2Ta2O8,mp-3444
1.8615,-1.9940984369642856,Li7Bi1O6,mp-38487
4.5207,-3.526525286190476,La4P4O16,mp-3962
2.5798000000000005,-1.3587828494531256,Ba2Ga8S14,mp-4309
0.7582000000000004,-0.5783572514062509,Cu4Sb4S8,mp-4468
3.8264,-3.6913798422500013,Ca4Zr4O12,mp-4571
2.9952,-3.2590437622222215,Sr4Nb8O24,mp-4591
0.4691999999999998,-0.019155462000000508,Te6As4,mp-484
4.0807,-2.803623046116299,Rb6Zn6F18,mp-4975
5.1179000000000014,-2.5867718365873014,Li2Bi2P8O24,mp-504354
1.6597999999999995,-0.8623033813644444,In8Te8Cl8,mp-504630
1.5097999999999998,-2.8653373648129237,Sr1V2P4O14,mp-505345
2.4485,-1.7506613161830364,Pb20S4O32,mp-505603
0.07859999999999978,-0.6385207282352939,Lu4Ge6Ru7,mp-505680
1.4197000000000002,-3.1506627602316817,Cs1Ba2Nb3O10,mp-505814
0.01309999999999967,-0.626885984285715,Er2Ni8As4,mp-510482
2.7279,-2.016909708055556,Ti4Te12O32,mp-5214
1.8421,-0.7194012171087534,Cs2Hg3I8,mp-540574
0.7873999999999999,-0.42859151874999935,As12Ir4,mp-540912
2.8477,-2.9650999621767244,Cs2Y2O4,mp-541044
0.9704999999999996,-0.4653195160201153,Cs24Ga8As16,mp-541678
2.7422,-2.5551450636206896,Cs4Gd4C8O24,mp-541789
0.1604000000000001,-1.0595855144642865,Tl1Cr5S8,mp-541823
2.8641,-2.6879502195424108,Fe4Si4P12O44,mp-541929
1.0575,-0.7102879533208394,Rb8Zr6Te32,mp-541953
2.1282,-2.0685586540909084,Co1Re2O8,mp-550479
1.3910999999999998,-2.29752287375,Ho1Bi2I1O4,mp-551101
6.0038,-3.1870742735003965,Cs1Be2B1O3F2,mp-553342
2.2479,-1.585911330185186,Na10Li6Ti4S16,mp-554395
1.1370000000000005,-0.7499709225267859,K4Cu8As4S12,mp-554421
2.608,-1.6887063139272034,Rb4Mo4I4O24,mp-554787
4.3213,-3.249553805074076,Ca18In2P14O56,mp-555661
3.9705,-2.59577788125,Bi4B12O24,mp-556548
4.0169999999999995,-3.465898183633,K4Zr4Sn4F28,mp-556631
1.8622,-2.2108424724305564,Ba8Ag2Au2O12,mp-556896
2.0903,-1.7131431725852273,V4Zn4Se8O28,mp-556959
3.4616000000000007,-3.0225661966575004,Ca8V4Cl4O16,mp-557276
4.6572000000000005,-2.4216826248521106,Na3La3H6S6O27,mp-557508
7.5679,-2.4049741915826663,Ba4H24F32,mp-557810
2.7135,-2.4798057769969217,Ba8Mn4As8O32,mp-558651
4.2797,-3.628824629204547,Sc2Si2O7,mp-5594
2.5851,-1.968098413214287,La6Si4S16Br2,mp-560523
4.2079,-2.551659124763976,K8Zn12P16O56,mp-560668
1.4807999999999997,-1.5126159325416666,Na8Pt4O12,mp-560860
3.6589,-2.4524181850952385,Na8Zn20P16O64,mp-560934
1.2549,-1.4511858145357148,K8Na4Tl4O12,mp-560950
1.6904999999999997,-0.9300744007812504,Nb1Cu3S4,mp-5621
2.4274,-0.9561799700040479,Co4Ag4N12O36,mp-562172
0.5468999999999999,-1.1442186613461542,Ta4Ni6S16,mp-562537
3.6777,-0.7289014236359994,K2La2Si2C8N16,mp-567129
0.04649999999999999,-0.3535959731818188,Re8Si14,mp-568595
0.5093999999999999,-0.8406961358620689,Ba11Cd6Sb12,mp-570121
4.2174999999999985,-1.8493493076913796,Cs2Na1Y1Br6,mp-571467
2.2648,-0.7762371770833335,Ge16S32,mp-572892
1.3831,-1.3092646864610715,Al8Se16Cl32,mp-574529
3.0607000000000006,-3.148727304506411,Na8Gd8B8O28,mp-583646
5.495,-3.1370474415699405,Ba3B3P3O15,mp-6040
1.4978000000000002,-1.4958467695219786,K6Gd6P8S32,mp-604889
2.0006000000000004,-3.2422846590624994,Sm8Si4Te4O16,mp-6055
1.1980000000000004,-0.4547551614756944,Ag2Hg2As2S6,mp-6215
0.9323,-2.458589405793333,Re8O8F32,mp-622116
4.4259,-1.0232659669220001,H3Br1O1,mp-625521
4.0154999999999985,-3.353572830468749,La8Ge4O20,mp-638261
6.5941,-1.8044680547107683,Si2H12N4F8,mp-643277
4.4008,-2.974602974236112,Ba4Li4B4O12,mp-6499
0.5350999999999999,-0.2595376240277775,Tl12Ag4Te8,mp-650442
1.9680000000000002,-2.5654218181940003,Gd6N2Cl12,mp-651160
3.6042,-2.7746157541262235,Cs12Sb12O12F48,mp-667360
3.4128,-3.5080519517370123,Ca28Ta28O98,mp-680380
0.8910999999999998,-1.7426070280296058,K2Dy4Cu4S9,mp-680676
1.2898999999999998,-0.17748281252827386,Cu8P32Se12Br8,mp-683899
3.5566,-2.5355215872435903,Sr3La3Tl3As6O24,mp-685195
0.4851000000000001,-0.7467608071428573,Sr2Ga4Te8,mp-6987
1.7647,-0.6296600507447367,Cr4H48I6N18,mp-720712
4.5312,-2.4757621058563437,K2Al4Ni2P6H8O28,mp-720723
1.2239,-1.7899142314645105,Fe6H12Pb1S4O28,mp-743742
3.6598,-3.1538449779166675,Y2Br2O2,mp-754031
0.7356999999999998,-1.3889516957291672,Ba2Se4,mp-7547
2.8034000000000003,-3.6710966734210526,Lu6Te1O12,mp-755804
2.1374,-2.1017374280555563,V4Co1Ni1O12,mp-755989
0.4836,-2.45396838375,Sm2Bi2O8,mp-768383
0.029499999999999967,-1.593013993363971,Cu4S6O24,mp-768451
3.0533,-3.074193499537037,Tm6Te3O18,mp-772191
0.2574000000000001,-1.001315188476,Sr3Sb1N1,mp-7752
3.0483,-1.4250719911875005,Na2Li2S2,mp-8452
3.4550000000000005,-3.1241641629166663,K2Na2Pr2Ta2O10,mp-861944
4.6128,-2.480148465463362,Cs4Sr4C6O18,mp-866617
0.8984000000000005,-0.5324271955930769,La16Mg8Ni16H64,mp-866666
1.7867000000000002,-0.7119365039279998,Ba4Re4N12,mp-989637
5.5222,-2.066468478745834,Na4B4S16O56,mp-1020655
2.323,-1.2790511466875003,K2S1,mp-1022
1.4187000000000003,-1.0631544738649428,Rb4Au4O4,mp-10547
0.07040000000000024,-0.4251922877499993,Yb1Rh3C1,mp-10716
0.3460000000000001,-0.9322141416666658,Ba2As2Au2,mp-1077361
0.03010000000000002,-1.5176356585711115,Eu2B1Br1N2,mp-1077381
0.7263999999999999,-2.8256053357500006,Li1La2Fe1O6,mp-1078209
1.8717,-2.8741637255059778,Cs2Tc1F6,mp-1079364
4.103599999999999,-3.338300924375,Li4Er4O8,mp-10970
2.9676,-2.451359401333333,Gd2H4Cl2O4,mp-1101836
0.17099999999999935,-1.65891257965,Na4Os4O12,mp-1105218
0.38730000000000064,-0.7356942000000004,Pr6Bi8Au6,mp-1105252
2.2294,-1.3870102091913792,Cs2Na1Sc1I6,mp-1112141
0.2826,-1.295780145583333,Ag2As2O6,mp-1178563
3.0221,-2.956435279127552,Na18Gd6P12O48,mp-1180408
0.02300000000000013,-0.02038291446666657,Eu1Mg149,mp-1185299
0.0653999999999999,-0.01988243093333305,Mg149Ru1,mp-1185555
0.06010000000000025,-0.4585096650000011,Yb1Eu1Tl2,mp-1187641
0.08619999999999982,-0.8878386659523806,Eu6Ga4P8,mp-1189104
2.9525,-2.657382513555902,Sr3Zn3Te1P2O14,mp-1190181
2.9983000000000004,-2.8737082154166664,La4Sb4O16,mp-1190427
4.3848,-2.803123781402778,K4Mg4B4O12,mp-1191101
1.4474,-1.1982542209598221,Li8Mn2Ge4S14,mp-1192995
1.4594,-0.7688949540563428,Cs8Cu16As8S24,mp-1196438
2.7174,-2.094740308793269,Na12W12Se4O50,mp-1196529
5.119300000000001,-2.9862423225369845,Na4Li4Mg4P4O16F4,mp-1196828
1.3538,-2.8907265362052117,Cs4Fe8F24,mp-1197505
3.3414,-3.5873894229687497,Ba2Gd4Si6O20,mp-1197749
1.0870999999999995,-2.4017983709765627,La8Hf4S20,mp-1197947
1.291,-0.7299255811527776,Hf5Tl20Se20,mp-1198311
4.8472,-0.8291737633057134,Ga2P2H18C6Cl6O2,mp-1198682
2.073,-0.5201722580687239,Rb6H24N10,mp-1198991
2.3823,-2.378735522379629,Na2Ti4As6O24,mp-1200852
4.5438,-2.115617469397977,Ni8P16H16O56,mp-1202294
0.3571,-2.5106066207530824,Mn6P6Pb2O24,mp-1202942
2.2899000000000003,-1.6523157872569447,Ba8Ga4Sb4S20,mp-1203806
4.2757,-2.6701497371501377,Mg48Si34H62O147,mp-1205288
0.7731999999999997,-2.75131048625,Ba2Nb1Rh1O6,mp-1205833
3.1803000000000003,-3.01097561275,Y12Cr8Ga12O48,mp-1207967
3.1584,-2.387214455972221,Tb2Ag2W4O16,mp-1208373
4.0229,-2.972880265000001,Ta8Cd4O24,mp-1208442
2.3788,-0.639863810833333,Sn4I4Br4,mp-1208879
2.2383,-1.891104912488104,Rb2Nb2Cl12,mp-1209219
2.0454000000000003,-2.006155486354167,Pr8S8I8,mp-1209328
0.09230000000000003,-1.5787569479835792,Rb8Zr6B1Br20,mp-1209464
3.159,-3.444575417268517,Pr2Ta14O38,mp-1209566
3.0254,-2.5407578477660966,Rb8Mo4P8O36,mp-1209627
5.9377,-3.1147785010784306,Pr4Mg4B20O40,mp-1209670
0.9552,-1.6439319281318183,Nb24Tl4Cl60,mp-1210630
0.04820000000000002,-0.6384006941666662,Lu16Cd4Pt4,mp-1210803
0.3721999999999999,-2.8242839677499996,Li2Nd4Ru2O12,mp-1211080
1.5522,-0.8378381480277777,K8Hg12S16,mp-1211986
0.5779999999999994,-0.5674607159999994,Hf6Ni6Sb8,mp-1212441
1.6060000000000003,-2.61781239475,Gd4Zn2Pt2O12,mp-1212755
3.2745999999999995,-1.3952728596561543,Er8Si16C4N24,mp-1212966
1.0702000000000005,-2.6056756234012504,Er4Mn4Fe4O20,mp-1213032
0.6457999999999999,-2.2299897258333345,Cr2Mo2O8,mp-1213733
3.7273,-3.65069530875,Ca4Sc2Ta2O12,mp-1214081
2.3319,-3.12718165975,Ca4Nb2Cr2O12,mp-1214115
3.2681,-2.849129846732456,Ca6Si9Pb9O33,mp-1214269
0.045999999999999375,-0.7701045158571432,Y1Zn1Cu1P2,mp-1215705
1.5673000000000004,-2.1310812013888896,V2Fe2Sb2O12,mp-1216330
1.9380000000000002,-2.5636817942664094,V4Cd3P6O24,mp-1216514
3.2345,-2.8475138921875014,Sr2Pr2Ga6O14,mp-1218050
4.688599999999999,-3.6924478554166655,Sr2Nd8Si6O26,mp-1218195
2.293200000000001,-2.0806744657812506,Sr3Pb1S4,mp-1218560
3.4363,-1.8183423907250005,Na2As6Pb8O24,mp-1220871
4.9226,-2.7740392495938893,Mn8B32O56,mp-12209
3.1835,-3.1368189792250005,Na1Ca1Mg1Cr1Si4O12,mp-1221077
5.3538,-3.182641821379524,Na6Be6Pb4F26,mp-1221271
1.1261000000000003,-0.4825901966666671,Mg1In2Te4,mp-1222182
5.152,-3.159093530015556,K2Al2Ni2F12,mp-1223554
0.7978999999999998,-0.6000659555064936,K8Ba4Sn2P8,mp-1224114
5.2860000000000005,-1.4487312379208326,Ga1H6N2F3,mp-1224894
1.9110000000000005,-3.06631683284091,Dy4Cr2Sb2O14,mp-1225509
1.1561,-2.6114142670385445,Cs2Zn2Co2F12,mp-1225874
1.9889,-2.2255087357366072,Cr2Ni2P2O10,mp-1226272
2.7313,-1.3725294763141027,Ba1Ti1I6O18,mp-1227524
4.4913,-3.079029442816,Ca4Al4Si2H4O16,mp-1227593
3.9747,-2.43995820325,Ca4Mg2Fe2C8O24,mp-1227885
0.9402000000000004,-3.1381461597500007,Ba3Sr1Er2Mo2O12,mp-1228234
4.9455,-1.912069341221149,Cs4H4C4O12,mp-1238754
4.0421999999999985,-3.19943735925,Sr2Ta1Ga1O6,mp-12427
1.5519999999999996,-1.063902494367816,Cs2Tm2Cd2Te6,mp-12496
0.006199999999999761,-0.2843168475000013,Ce1Mg2Ni9,mp-13505
2.1724,-1.2471167231964289,K2Pr2Si2Se8,mp-13538
7.0131999999999985,-3.598164436725263,K8Mg8Be12F48,mp-13613
3.3693,-2.8687447207112067,Rb2Al2O4,mp-14070
3.5526,-2.116545520711206,Rb4Li2As2O8,mp-14363
2.9639,-1.5542585273214289,Sr8Ga16S32,mp-14425
3.039,-2.4088609375484693,K4Hg4P12O36,mp-14469
3.7453,-3.0773641530681832,Tb8Ge8O28,mp-14649
2.2505,-1.7005677253467737,K28Fe8O26,mp-14679
2.0724,-2.0397601566056034,Rb8Sn8As8O40,mp-15108
1.0028,-0.900449832546875,K4V2Cu2Se8,mp-15220
3.3260999999999994,-2.9993575088750006,Ho12Ga20O48,mp-15575
2.2283000000000004,-3.513754943571428,Sr4Ce2O8,mp-15743
5.1143,-3.747439743746469,Ho12Si12O40F4,mp-16165
3.2115,-2.5654813648297616,Na6In4P6O24,mp-17349
3.6806,-2.4160540863256585,K7Ta1S6O24,mp-17455
1.8504999999999996,-1.9026924590364582,Ho6Si2Cu2S14,mp-17486
2.3579,-2.263218325291666,K4Ba4Fe4O12,mp-18038
2.9235,-2.0173277550000006,Li6Zn6As6O24,mp-18048
0.2951000000000006,-0.13198570591836756,Si6Ag6Sn4P12,mp-18310
1.8096,-2.4465249381428587,K3V3O8,mp-18761
0.8011000000000004,-3.37206437763158,Y5Mo2O12,mp-18821
4.3173,-2.2743491158571425,K4Mo2O8,mp-18914
1.5058000000000002,-3.1090822898611115,Ba1Sm2Co1O5,mp-19248
4.1325,-3.0861836594419776,Ba8Mn4P8O32,mp-19487
0.007099999999999441,-0.8085564777777784,Gd3In3Pd3,mp-20224
1.9846,-2.1088191333925,Pt1Pb1F6,mp-20458
1.236,-1.5617166940732763,Rb8Pb4O12,mp-21461
0.0016999999999995907,-0.9045608141666672,Ce12Ge12Pd12,mp-21647
0.9478,-0.7755795070312512,Sn4S4,mp-2231
1.6567999999999998,-1.5723086699563638,Ni2Au4F16,mp-22552
2.6396999999999995,-2.6968938080460005,Na2La2Mn2W2O12,mp-22748
0.6589999999999998,-1.2653209292413792,Cs2V2Br6,mp-23038
3.9837,-2.0532168005963642,K8Cd2Cl12,mp-23392
5.4426,-3.60397968315,Ba2Cl2F2,mp-23432
1.3403999999999998,-2.546988173053605,Rb4Mn2H4O2F10,mp-24036
4.0307,-2.321769015916149,Li4Ni6P8O28,mp-25991
2.5511,-2.188276518571429,Mg4Sb8O16,mp-27219
3.4146,-2.1902682268678157,Cs4Tc4O16,mp-27250
3.497,-2.9298893174038465,Pr8W8O36,mp-27479
2.6093,-1.5126695932048229,Rb2Se1Cl6,mp-27829
0.006699999999999928,-0.3580248196250002,Na6Bi2,mp-27838
1.1862,-0.5734583855000004,K6Al4As6,mp-28347
0.7885999999999997,-0.8054336469230771,Sr20Al8Sb24,mp-28392
0.9318,-1.7427989205066663,Li4Nb12Cl32,mp-28463
1.0701,-1.5194640473310002,Nb24I8Cl48,mp-28585
4.2611,-3.6529952541720765,Nd18P6O42,mp-29094
1.8378,-0.44963963100000015,Al16Te24,mp-29502
6.7529,-3.5131835621139995,Na4Mg4F12,mp-2955
4.0768,-2.5812204770366662,As2Pb2F14,mp-29992
3.9035,-1.6457300683333334,Ca1I2,mp-30031
0.007299999999999862,-0.844491731666667,Sm2Ge1Rh3,mp-31402
5.1172,-1.9561044935800005,Zn1Si1H12O6F6,mp-40134
2.6465,-2.806886434285714,Sr8Sn4O16,mp-4287
1.5693,-0.9218980051785718,Ga2Hg1S4,mp-4809
2.5203999999999995,-3.5108986945833336,Ba1Ti1O3,mp-5020
3.2324,-2.0948766510750008,K24W6O30,mp-504840
5.0727,-1.543456576555815,Mg1H12Se1O9,mp-504894
1.7506999999999997,-0.5648751478229168,In6Ga6Se18,mp-504952
1.157,-1.2186807051077586,Cs4Mn2S4,mp-505034
0.1782,-2.359270524120065,Cs4Ag2F8,mp-510565
1.2794000000000003,-1.4154249507500003,K1Pr1Te2,mp-5273
3.8602,-2.7554132418510546,Rb8Ti4O12,mp-5403
2.6534,-2.382751556500002,K4La4Cr8O32,mp-541211
2.2563000000000004,-1.4565354178102676,K8La4P8S28,mp-542081
0.4064000000000001,-2.4759944225000003,Ba8Fe4O16,mp-542120
0.012699999999999713,-0.8051374679999995,Gd1Co2Si2,mp-542985
1.6743,-1.0050620085555566,Na1Ni1I1O6,mp-545399
2.8653000000000004,-2.124985073875,K1Cr1O2,mp-546552
5.7033999999999985,-3.289151015833333,Si2O4,mp-546794
1.9811,-2.301244450625,Lu1Bi2I1O4,mp-550635
1.1902999999999997,-1.3541651551562506,Co2Sb4Br4O6,mp-550763
0.6562000000000001,-0.6829811945433324,Li56Mn8N32,mp-5515
3.9379,-2.9102676504790903,Ba6W2Cl4O10,mp-553883
2.7033000000000005,-2.031465362614088,B8Pb24S4O48,mp-553930
1.4972,-1.14332298371,Br12N4O16F40,mp-554129
3.7144,-1.891501995046705,As4Se4Cl12F24,mp-554706
3.4056,-3.6054640725000007,Tm2Nb2O8,mp-555109
1.6425999999999998,-1.8344852223700008,K8Na4Mn4O16,mp-555116
5.081,-2.6570759947452376,Na12P12O36,mp-555118
1.8534000000000008,-2.5000487892261907,Ba4In2Br2O6,mp-555212
4.0117,-2.2103361731694235,Te8S4O16F24,mp-555457
3.3463,-3.147680724784484,Rb8Gd4Ga4Si16O48,mp-555485
5.055,-2.9810652536212117,Na12Be6Si12O36,mp-556013
2.9937,-3.285719053293333,Ba2Co2F8,mp-556101