band_gap,formation_energy_per_atom,full_formula,task_id
0.0,-0.5235581015476191,Mo4P4Ru4,mp-22451
1.2311000000000005,-1.5426863555066663,V1Cl2,mp-22877
4.9921,-1.475617069666389,Ni4H56S4O44,mp-23877
3.4261999999999997,-0.3067118075046647,Rb8Mg6H20,mp-24662
0.0,-0.6937325558333333,Nd1Ga2,mp-2524
3.1550000000000002,-2.549482251808036,Li2Fe4P6O20,mp-27007
0.12380000000000013,-0.326955601666666,Co4As8,mp-2715
0.0,-0.42786943055555643,Zr4Ni14,mp-2717
0.0,-0.16813693000000018,Hg1Te1,mp-2730
2.0826000000000002,-2.1706441735807407,K2Ti1Cl6,mp-27839
3.4788000000000006,-1.932289997617188,Ca8Se16O40,mp-27845
0.0,0.0,Ce1,mp-28
0.9990999999999999,-0.4576737071874999,Hg8I4O4,mp-28136
0.0,-0.7323577911111114,Zr6Co1As2,mp-29135
2.6752,-1.8819894985795462,Ba6Ga4S12,mp-29302
0.0,-0.6460466533333337,Ho8Au4,mp-30385
0.0,-0.30219531249999854,Ir2W2,mp-30744
0.0,-0.0691425047368421,La4Mg34,mp-30752
0.0,-0.2109288636842106,Er24Co14,mp-30970
0.0,-0.8449634202777787,Hf8Si16Ru12,mp-31022
3.9208,-2.3706726531808036,Er4Se6O18,mp-31352
0.0,-0.38138172000000103,Hf10Cu2Sn6,mp-31469
2.7622999999999998,-2.848947149166667,Ta4Ni2O12,mp-32308
2.329,-2.0028418012499998,Li20Zn8O18,mp-3297
0.0,-0.4632662725000003,Ta1Al1Co2,mp-3340
0.0,-0.8415702673333328,Lu1B1Rh3,mp-3717
3.7594000000000003,-3.1685683562708333,Ba60B48O132,mp-3974
5.177300000000001,-1.9000968510799991,Si1Ni1H12O6F6,mp-40144
0.0,-0.7024442980000003,Ba1As2Ru2,mp-4109
3.6344000000000003,-3.3450837766098487,Ca6Er6Ge4B2O26,mp-41109
3.1434999999999995,-1.3977017020312505,Be1S1,mp-422
0.0,-0.8180713838888889,Ho3In3Pd3,mp-4299
0.0,-0.13517526689999998,Na1Ga4,mp-454
0.0,-0.15451664392857165,Ce2Be26,mp-457
3.741,-3.9328998537500013,La4Zr4O14,mp-4974
3.4146,-2.626319075610633,Cs24Si12O36,mp-505734
0.0,-0.9365327755926725,Cs6O2,mp-510262
3.1159999999999997,-2.547859278181818,Zr1Mo2O8,mp-510456
2.7453000000000003,-2.4314548011904775,Fe4P4O16,mp-540111
0.0,-2.6406524033304537,Cs3Mn4P12O36,mp-542450
0.10780000000000012,-1.4504222725833338,Ag2Sb2O6,mp-545999
2.5504000000000002,-3.096279425573979,Ba4V2P4O18,mp-554810
0.38149999999999995,-1.0967666580729172,Ba1Ag2Sn1S4,mp-555166
0.0,-2.67892886125,Ba6Lu2Ru4O18,mp-555246
2.6729000000000003,-2.7024458152959996,Na2Tb2Mn2W2O12,mp-555494
3.2782,-1.9497548047894737,K8Ni8Mo12O48,mp-556279
1.6433,-0.9775198291388895,K4Sn2Au4S8,mp-557121
2.8045999999999998,-3.6652647737500015,Nd12Nb4O28,mp-557763
0.0,-0.49008914722222247,Lu1B2Ru3,mp-5578
3.2222,-3.7936699746425004,Hf1V1F6,mp-557938
2.8773,-2.206278656608333,K8Mo4S8O40,mp-558124
4.163600000000001,-2.1603004877548613,Mn15Pb3S18O72,mp-558292
4.0674,-2.833365791817679,Tb12Se8Cl4O32,mp-558490
1.5540000000000003,-2.1829065722625,La40Se56O4,mp-558535
2.0086999999999997,-2.456128471836081,V6Cd10P12O50,mp-558711
0.5927000000000002,-2.4028610081629993,Ca4Mn24Si4O48,mp-558986
1.9943,-1.0109403723706893,Rb4Ge4Bi4S16,mp-559227
4.6817,-3.402633127437501,K4Ba4Y4Si8O28,mp-559670
3.0862999999999996,-2.7656455464682543,Sr2Cr2Sn2P6O24,mp-560855
0.0,-0.6447099535803575,K4P8Au20S32,mp-561218
1.4488,-1.8086177763437494,K2Au2S4O16,mp-561454
0.0,-0.39134807388888976,Ti2Sb4,mp-568
0.0,-0.37247520444444443,Yb2Ag4,mp-568559
0.0,-0.47858883611111164,Lu10Ni2Pb6,mp-568942
0.0,-0.7582774427777781,Nd20Sn16,mp-569347
0.9912,-0.49818847971759267,K24Pd4Se80,mp-570241
0.0,-0.08787311536764765,Tm8Fe56C4,mp-570414
0.0,-0.3164923018749999,Al12Mo4,mp-571247
0.0,-0.6135006872222218,Y2Ag2Sn2,mp-5729
0.0002999999999997449,-1.1955237035641162,Cs4Nb12S4Br28,mp-573274
0.0,-0.48966822333333304,Gd3Mg3Ga3,mp-574004
0.0,-0.3774063377777779,Y4Ni14,mp-574339
0.0,-0.5495160943333331,Ca6Cu2Sn7,mp-579544
0.0,-0.7594234380000018,Eu1Si2Ru2,mp-581736
0.0,-0.2926441813028167,La26Cd116,mp-581920
0.0,-0.14152631441666644,Na8Sn16,mp-583168
1.8309000000000002,-0.8973424340798184,Cs12P4Se16,mp-583193
1.3699000000000003,-0.9303154294062503,Na4As4S8,mp-5942
0.25239999999999996,-1.9113370515196126,Cs2Pd4F10,mp-5972
0.0,-0.3347787778787883,Yb2In8Ir1,mp-601846
0.0,-0.7397952722222227,Zr6Sn6Ir6,mp-607139
4.491,-1.9258074257078164,Cs4Ga4Cl16,mp-608516
1.9759000000000002,-1.9108204064670147,La6Ag2Ge2S14,mp-617632
1.7163,-1.8264540224938426,Cs4Gd4Si4S16,mp-630711
6.6578,-3.596093609757273,Na4Mg2Al2F14,mp-6319
0.0,-0.3667087205555551,Zr1In1Ni4,mp-637771
0.0,-0.9181288105769235,Pr12Ge24Pt16,mp-645543
0.9068,-0.9991494162704083,K4Ni4P4S16,mp-662530
0.0,-2.5688063241236407,La10Er9S27,mp-669516
6.666399999999999,-2.529925904086207,Rb2H2F4,mp-677103
0.0,-0.4533867881818187,Sb12Pd32,mp-680057
3.2076000000000002,-1.3916827854253837,Ho8Si16C4N24,mp-6825
6.101800000000001,-1.6906261409003573,H4S2O8,mp-690733
3.0980999999999996,-2.1861500812457892,Pr16Si16N28Cl4O12,mp-699390
3.7072000000000003,-2.0708650668627446,In16Mo24O96,mp-705134
0.0,-0.9942177218750001,Nd2Te6,mp-740
0.0,-0.8770829983333345,Lu4Si4Ru4,mp-754955
1.4925,-1.917312250201667,Na4Mn2O6,mp-755874
0.0,-3.774044908802084,Ce8Ti4O20,mp-768309
0.0,-2.6297226084660315,Mn2V3Cr1P6O24,mp-769568
0.25639999999999974,-0.6697046100000001,Sr1Zn2As2,mp-7770
5.1459,-1.4151326743150001,Be4Si4N8,mp-7913
0.0,-1.8573727089000003,Na16Nb2O12,mp-849285
0.0,-0.3228489880357139,Ho2Cr2C3,mp-8499
0.0,-2.3483679158333337,Yb6Te3O18,mp-8504
0.0,-2.8525332224369757,Nb3V1P6O24,mp-850405
0.0,-0.20858604187499985,Li1Hf2Re1,mp-861875
0.0,-0.564345865,Ca2Cd1Sn1,mp-861940
0.0,-3.5087193675833332,Sm4B4O12,mp-8627
0.0,-0.6092341381249997,Pm1Bi1Au2,mp-862879
0.0,-0.3887425725,Nd8Al8,mp-864637
0.0,-1.3768793591266661,Hf4N2,mp-864647
0.0,-0.5105413360416655,Nd6Rh18,mp-864699
0.0,-0.16511660874999956,Mg2Ag6,mp-864934
0.0,-0.4678169412500015,Mn1Si1Ru2,mp-864966
0.0,-0.1118983762500001,Mn3Ge1,mp-865027
0.0,-0.4006465804166668,Ti1Zn1Ni2,mp-865093
0.0,-0.08260065862499988,Na1Mg1Tl2,mp-865110
0.0,-0.3631775397619059,Lu4Ni13C4,mp-865141
0.0,-0.5081943762499996,Ca2Cd1Pb1,mp-865167
0.0,-0.6750044837499996,Lu2Os1Pd1,mp-865336
0.0,-0.8604493162499995,Lu1Sn1Rh2,mp-865378
0.0,-0.6884330949999988,Lu2Cu1Ir1,mp-865829
0.0,-0.8352420583333338,Ti2Tc1Ir1,mp-865840
0.0,-0.47283653250000013,Pm2Si1Hg1,mp-866204
0.0,-0.4383817074999996,Sc6Os2C8,mp-867215
0.0,-0.8821755475000002,Tb2Ir1Pd1,mp-867236
0.0,-0.3224781356250004,Sm1Pb3,mp-867238
0.0,-0.26873642124999897,Tc6Pt2,mp-867281
0.0,-0.6557190568750002,Sm1Cd1Au2,mp-867882
0.0,-0.84347870625,Li1Si1Rh2,mp-867902
3.3991,-3.0036503583484855,K2Zr1B2O6,mp-8891
0.49880000000000013,-0.6842179050000006,Zr1Ni1Sn1,mp-924129
0.0,-2.1008015542857135,Ho2Cu4O8,mp-9421
1.1449000000000003,-1.065757444375001,Tc4S8,mp-9481
0.0,-0.820762225,Pr4Ge10Rh6,mp-975634
0.0,-0.5234689950000018,Zr2Tc1Pd1,mp-977578
0.0,-0.4634459085416669,Sm1Ho1In2,mp-978563
0.0,-0.4004274618750001,Sm8Al8,mp-978951
0.0,-0.296559066875,V2Re1Ru1,mp-981365
1.1833,-2.0481178181599993,Na3Mn2Sb1O6,mp-985626
0.029300000000000104,-0.7531998850000002,Ba2Cu2As2,mp-9898
3.7361999999999997,-2.5964065839083332,Sb4F20,mvc-3453
0.0,-0.4795141892857145,Sm4Ga18Co6,mp-1005789
0.0,-0.5784957414649998,Ce1H3,mp-1008376
0.0,-1.4559381258125002,Ba4Na2O2,mp-1019519
4.0844,-2.669009909912895,Rb8Ge4B16O36,mp-1020707
0.0,-0.6734274155555559,Tb1B2Ir3,mp-1025075
0.0,-1.9516416021085716,Tl2Cu1F4,mp-1025338
0.0,-0.3472373423214279,Dy2Mo2C3,mp-1025363
0.0,-0.5519696722023814,Tb2B4C1,mp-1025379
0.0,-1.3094262424999998,Er4Pt4,mp-1025444
1.4073000000000002,-1.9043770400601394,Y4Se3N2,mp-1029349
2.9433,-1.2553838361900003,Mg4Ta2N6,mp-1029442
1.9199,-0.9214187478387075,Rb16Nb16N32,mp-1029493
0.9426000000000001,-1.0961806955022222,Sr8Zr2N8,mp-1029580
0.0,-0.5439887649999999,Ho10Ni4Sb2,mp-10500
1.8306,-1.9012425805,K6Sb2O8,mp-10543
0.0,-0.3880425899999995,Mg1Sc2Ru1,mp-1063566
0.0,-0.5252251666666673,Tb2In1Ni2,mp-1068164
0.0,-0.6492979233333335,Gd2Al2Ge2,mp-1077056
0.0,-0.772830624166667,Pr2Ge1Rh3,mp-1077830
0.0,-0.5877963995238085,Ta1Mn2B4,mp-1077930
0.0,-0.9693667208333334,Dy2In2Pt4,mp-1078790
5.1069,-3.4158078296424996,Li1Nb1F6,mp-1078799
0.0,-0.8193625606666665,Er4In2Au4,mp-1079059
0.0,-0.5856483366666659,Ho6Mn1Te2,mp-1079239
0.0,-0.7652264772222218,Lu3Zn3Pd3,mp-1087473
0.0,-0.7936929174999996,Li4Eu4Bi4,mp-1095380
1.7195,-1.613017975824653,Ba2La2Ag2Se6,mp-1101818
0.0,-0.8323408324999994,Hf4Ge4Ir4,mp-1102841
0.0,-0.7308392185714284,Ce6Pd8,mp-1103851
1.0648999999999997,-1.8083983123214296,Eu2Al4S8,mp-1103889
0.0,-1.0004168042857142,Lu6Pd8,mp-1103963
0.0,-1.197237041428571,Sc4Si4Pt6,mp-1104406
0.0,-0.31182398769230757,Tb1Al8Cu4,mp-1104741
1.5481000000000003,-0.6449734408348213,Sm2Tl2P4Se12,mp-1105449
0.0,-2.4554124549375005,Ce2Lu6S12,mp-1105574
0.0,-0.45926193666666676,La8In4Ni8,mp-1106017
0.01689999999999997,-2.4432927500940997,Cs2Cu3Sn1F12,mp-1106088
0.0,-0.3442884409210538,La1Co12B6,mp-1106274
0.0,-1.0408753939080462,Cs2Tl1Ag1Br6,mp-1113444
4.2142,-2.4207773691081993,Cs2Hf1Cl6,mp-1120741
0.0,-0.501270768888889,Ce2Ag2Ge2,mp-11215
0.0,-0.28197499875,Dy2Cd6,mp-11295
0.0,-0.37774665124999984,Sc1Ga1Cu2,mp-11360
0.0,-0.4764863937499997,Nd1Hg1,mp-11467
0.0,-0.33451624791666656,Dy2Zn1Ag1,mp-1184095
0.0,-0.5111764385714285,Dy4Ga21Ni10,mp-1185142
0.0,-0.31881874833333335,Lu2Tl1In1,mp-1185446
0.0,-0.3046756181250001,Pm1Pr1Zn2,mp-1186630
0.0,-0.058515769999999634,V1Cr3,mp-1187696
0.0,-0.4842957092708331,Sm6In10,mp-1188557
0.0,-0.1574089637500009,Eu10Cd2Cu4,mp-1189588
0.0,-1.177343773125,Ho4Si4Pt8,mp-1190095
0.0,-0.46713309604166636,Nd2Si4Ni18,mp-1190833
0.0,-0.2831894340277792,Ti16Co8,mp-1191331
0.0,-0.6788167495454545,Ba4Ge8Pd10,mp-1191488
1.9143000000000001,-2.5838657142857135,Dy4Mo4Br4O16,mp-1192462
2.125,-0.9117319584821425,Mg8Si4Se16,mp-1192582
3.2883,-1.696420290546924,Li2As4H6O14,mp-1192746
0.0,-0.8480222123469393,V16P12,mp-1192783
0.0,-0.3668007435632191,Ti2Ni21B6,mp-1193180
2.3173999999999997,-1.9925171300000004,Sr2Co4As4O16,mp-1193940
0.0,-0.6566236135714283,Sm12Ge8Ru8,mp-1194691
0.0,-0.8778859749999997,Yb6Si22Pt46,mp-1195477
0.0,-0.41588349849999984,Ce6Sn26Ru8,mp-1198582
3.1356,-1.5574721758376915,Nd8N24O72,mp-1199401
0.06059999999999999,-1.2945688659562637,K12In6H24N32O108,mp-1199428
0.0,-0.7863245604365079,Yb4Co20P12,mp-1199692
0.0,-2.5291065071452707,La4Er11S22,mp-1199854
0.16129999999999978,-2.8250194684107157,Ce4P20O56,mp-1201068
2.3292,-1.662859362534723,Ba8Ga4Bi4S20,mp-1201906
0.0,-0.41600140312499967,Er1Al4Ge2Au1,mp-12020
3.3704,-1.3907030008195553,Mg2Cd1H24Br6O12,mp-1203195
0.0,-0.6583489836956522,Ho10Co8Si28,mp-1203317
0.0,-0.6375475177777782,Er2Al4Co1Ge2,mp-1205974
0.0,-0.6640908369444445,La3Mg3Au3,mp-1206060
0.0,-0.6066513091719997,Sr1H3Pd1,mp-1207079
0.0,-0.4471138300000007,Pr2Ga1Ni2,mp-1207239
0.0,-0.19386118031249966,Zn24Au40,mp-1207512
0.0,-0.8220442710000005,Tm6Sb8Pd16,mp-1208001
0.0,-0.37360519370370404,Ti10Co2Sn6,mp-1208283
0.0,-0.3328563793396222,Sm12Nb8Al86,mp-1208824
0.0,-0.777914510333332,Sc4Ge2B4Ir10,mp-1208986
0.0,-0.4619445016666661,Sc6Ag6Sn6,mp-1208999
2.3002000000000002,-0.8282858429064892,Rb8Si8Se20,mp-1209497
0.0,-0.33886097730769266,Pr2Al20Fe4,mp-1209798
3.6622000000000003,-2.7088834894117646,Pr4Mo6O24,mp-1209807
0.9934999999999999,-0.8743882478333335,Na4Fe4Br16,mp-1210192
0.0,-0.2672101778125002,Pd16Pb16,mp-1210215
0.0,-0.6508862744047615,Sm22In12Ge8,mp-1210793
0.0,-0.16227869769230643,Mg1Mn6Ge6,mp-1211250
0.0010999999999999899,-2.305246761521978,K4Co8P8O32,mp-1211872
4.076700000000001,-1.9230019728397736,K4P2H6Se2O16,mp-1211877
0.0,-0.7809324924999999,Ho10Sb2Pd4,mp-1212203
0.0,-0.407920803333333,Ho16Mg4Rh4,mp-1212304
0.0,-0.22542670583333324,Li2Mg1In1,mp-12128
0.0,-0.642062475,Er4Zn4Ge4,mp-1212934
4.0113,-2.6624520255172412,Cs1Lu1Mo2O8,mp-1213076
0.0,-0.9020018933333347,Gd8Sc12Ge16,mp-1213448
0.0,-2.4336343570312504,Yb1Tm1S2,mp-1215472
0.0,-0.6049556283333329,Y2Ga3Cu1,mp-1216081
0.0,-2.409099024036458,Tb3Sc2S7,mp-1217634
0.26180000000000003,-2.972722597928182,Tb4Mn2Sb2O14,mp-1217713
0.0,-2.7466798779420003,Sr2Pr2Mn4O12,mp-1218059
0.0,-0.5527437702500002,Sm8Ga21Ru11,mp-1219444
0.21260000000000012,-0.15701071764367847,Rb8Sn42Hg4,mp-1219835
0.0,-0.5859430637500003,Pr2Al1Si1,mp-1219910
0.0,-0.484716974107143,Nd1Eu1B12,mp-1220180
0.0,-0.3205646306666665,Nd12Rh3,mp-1220520
0.0,-0.21928054333333336,Nb2Pd1,mp-1220678
0.0,-0.0824765761538466,Mn1Al24Cr1,mp-1221714
0.0,-0.2505936985714282,Lu12Co9,mp-1222465
0.0,-0.30134539166666663,Li2Ga1Ag1,mp-1222659
0.0,-0.773848457500001,La3Si7Ni3,mp-1223126
0.0,-1.241504542328748,Hf4C3N1,mp-1224399
0.0,-0.8137422733333324,Hf6Ga6Pd4Pt2,mp-1224422
0.0,-0.7048658230952375,Dy2As7Rh12,mp-1225463
0.0,-0.7398005063888888,Er4Ta1V7B24,mp-1225684
2.6144000000000003,-2.1864537676340996,Cs2Sb2W2O12,mp-1225944
0.0,-0.19753700999999957,Cd1Sn1Au1,mp-1226720
0.0,-0.272003893333333,Ce1Al1Cu4,mp-1226887
0.0,-0.16714659869565196,Ce2Al41Mo3,mp-1227005
0.0,-2.755637154083333,Ca4La8Fe12O36,mp-1227525
4.1041,-3.368392639287407,Ba6Mn2Zn1Cl6F12,mp-1228107
0.0,-0.6841463932677215,Cs19W12N30,mp-1228320
0.0,-0.26729148388888846,Al3Ge3Mo3,mp-1228900
0.0,-2.3037560999999993,Yb2As2O8,mp-12387
0.0,-0.70908801,Pr1Ge3Rh1,mp-13072
0.0,-0.7490843233333327,Tb2Rh4,mp-1310
0.0,-0.711768896666666,Li3Er3Ge3,mp-13474
2.3981999999999997,-2.598995428125,Pr1Cu1O2,mp-13694
0.0,-0.13935975374999998,Zn6Ru2,mp-1380
0.0,-0.5865390341666673,Sm2Si4,mp-13955
2.1752,-3.298370304218751,Nd2Se1O2,mp-13971
0.3403999999999998,-1.87831325915625,Tb8Se12,mp-15257
0.0,-0.6987193122222214,Tm2Ti2Ge2,mp-15293
0.0,-0.2739064984615381,Mn6Al18Si2,mp-15819
0.0,-0.9293567374999991,Hf6Rh10,mp-17045
6.808199999999999,-3.7727065743062496,K8Y4F20,mp-17077
3.2026,-3.684738867857143,Ba4Tb8O16,mp-18258
3.7859,-2.724227819945055,Ca2Zn4P4O16,mp-18308
2.794,-1.8623156098706903,Rb4La4Si4S16,mp-18658
0.0,-0.12231635937500052,W1C1,mp-1894
0.0,-2.198076489249999,Ba6Co2Ru4O18,mp-19058
3.2723999999999998,-3.04352668275,Ba2Ca1W1O6,mp-19182
0.0,-0.13583343666666772,Zr2Cu1,mp-193
1.8935999999999997,-2.810572293593749,Ca2V4O10,mp-19305
2.1988000000000003,-2.7823309558459997,Sr4Mn2W2O12,mp-19315
0.41449999999999987,-2.617207885267242,Ba12Na4V4Ru4O34,mp-19501
0.0,-0.2672136466666662,Nb2Sb4,mp-1969
0.0,-0.7596972382758622,Al42Pt16,mp-1982
0.0,-2.7552876247000007,Na2Pr4Os2O12,mp-20009
0.0,-0.5773213411111104,Li8B4Pt12,mp-20234
0.0,-0.38196051222222216,Dy3Mg3In3,mp-20573
0.0,-0.9159901635714282,Ce8Sb6,mp-20680
0.0,-0.4275496638888887,Ca2In4,mp-21068
0.0,-0.306419879583333,Y2Co2C2,mp-21422
0.0,-0.7346790360576924,V4Ga1Se8,mp-21504
0.010799999999999699,-0.6833794933333337,Ti12Fe12Si24,mp-21662
0.0,-3.4370043277675,Yb4F12,mp-22072
0.0,-0.6508459999999999,Ce1Ge2Ru2,mp-22343
0.0,-1.5086893957427272,Mn4Tl4O14,mp-22354
0.2147000000000001,-2.8091508624999997,Tm2Cr2O8,mp-22647
1.8151000000000002,-2.8303023017499997,Ba2Y1Bi1O6,mp-23137
0.0,-2.628473450552941,Sr4Mn3Cl2O8,mp-23597
5.3401,-1.993128323004966,Rb4H8O4F4,mp-23700
5.2359,-1.8778226933849211,K6P6H6N6O12,mp-23942
0.0,-0.7299513749133334,La1H2,mp-24153
0.0,-1.6874844017968753,Er1Se1,mp-2491
0.0,-0.7917630981250001,Tb10Ge6,mp-2610
0.0,-0.8398375106249998,Ca20Bi12,mp-27145
2.5999999999999996,-1.2667713656157633,Cs3Bi2Br9,mp-27544
3.6742999999999997,-2.311363789125001,Mg4Mo8O28,mp-27604
2.4078,-1.5921594247999997,Na16Pb8O16,mp-27622
0.0,-0.5829482157466673,Hf1H2,mp-27731
0.0,-1.0480777734759996,Zr6Al2N2,mp-27898
3.507,-2.877578632290125,Na16Ti10O28,mp-28017
1.8615000000000002,-0.9827056331874999,K4Cu4S4,mp-28270
0.5246,-0.38060513695833365,Na12Te36,mp-28478
3.5949999999999998,-2.667584262069722,Sb28F116,mp-29369
0.0044999999999999485,-1.1161871665402958,Re8P12Cl96,mp-29593
0.0,-1.1356066949999999,Ce4Sb4Te4,mp-30152
2.3691,-3.675625418171429,Sr8V8F40,mp-30297
0.0,-0.4505280296296298,Ti1Pt8,mp-30852
0.0,-0.2735875925000002,Rh6W2,mp-30866
4.4896,-3.103004670805556,La4B20O36,mp-30926
1.0937000000000001,-1.1701067304285715,K4Nb6Br18,mp-31012
0.0,-1.0741493831426667,Dy3In1N1,mp-31056
0.0,-0.568689893333333,Zr1Sb1Ru1,mp-31457
0.0,-0.26071919166666646,Sr2Ir4,mp-318
0.0,-0.6973164480000001,Tb1Ni2Ge2,mp-3329
0.0,-1.0172477020887225,Rb2Fe4S6,mp-3787
5.0441,-3.27345972588492,Na2Hf4P6O24,mp-40161
0.0,-1.0807407459999994,Dy1Si2Ir2,mp-4065
0.0,-0.5036365214999996,Ca6Sn26Rh8,mp-4363
0.0,-0.9286835790147793,La6P17Pd6,mp-504775
0.45040000000000013,-2.0295299929947923,La6Mn2Ga2S14,mp-504891
0.0,-0.8117455557142861,Nb36P18,mp-505064
0.0,-0.6951149559999997,Y1Ni2Ge2,mp-5109
0.0,-0.24098277375000032,Ca1Tl3,mp-526
3.8724,-2.4899073441682202,Rb10Nd2Hf2Mo12O48,mp-532538
2.3448,-2.6612320903592317,Na8Mn8Si8O28,mp-540871
1.5071999999999999,-1.2848381423888746,Rb12Nb8S44,mp-541745
1.4379999999999997,-1.0858713498522727,Na8Re12S24,mp-541895
0.0,-0.891863531250001,Nd6Sb10Pd12,mp-542565
0.0,-0.18077044541666668,Tb2Mg4Cu18,mp-542933
3.7665999999999995,-3.8583470282500008,Pm16O24,mp-553921
0.0,-1.0377221490416175,Cu10Se4Cl4O16,mp-554163
5.6533,-2.7616228415796717,Li16P8O28,mp-554577
2.7192,-1.9510961955833332,Ge6Pb6O18,mp-554699
2.2417,-3.0220874759519996,V2F8,mp-554799
3.0026,-2.6069669541639997,Na1Tl2Mo1F6,mp-555970
0.0,-2.3830430180921054,Dy18Sb10O10,mp-556015
3.1165000000000003,-2.4854522473055556,Na14Al6O16,mp-556168
4.7252,-2.6698449501085717,K2Ni1F4,mp-556546
2.4631999999999996,-1.659393761065272,Cs4Sm4Ge4S16,mp-556979
2.8512999999999997,-1.736720761798571,Sb32Cl8O44,mp-557022
3.4396999999999993,-2.683609459565217,Li8Ga6Si6I2O24,mp-557112
0.0,-1.2124149643269237,Ba2Hg3Pd7O14,mp-557269
2.1029999999999998,-0.9354052951666674,K1Au1I4O12,mp-557441
3.2874999999999996,-2.6951885365000003,K2Er2W4O16,mp-558010
3.9997,-2.7461142776029996,Sr12Bi4Cl12O12,mp-558642
2.7323,-2.354845654293546,Rb8Mn8V8O32,mp-559311
3.5606999999999998,-2.8097804742202377,Ta8Cd4P24O84,mp-559692
3.8477,-2.6174163299183335,Ho4Te4Cl4O12,mp-559805
4.595000000000001,-3.01183739901923,K6Al6B6O21,mp-560217
4.0426,-2.3009984751875,K12V4O16,mp-560869
4.963699999999999,-3.2630232857823143,Ba10P6Br2O24,mp-561125
3.8084999999999996,-3.3667517677083327,Sm6B2W2O18,mp-561186
2.7689999999999997,-2.7159666293027267,Na4Fe2Ni2F14,mp-561395
3.0413000000000006,-2.3035239492045467,Mg2As2O7,mp-5618
0.0,-0.5286554664999997,Ce8Al60Ru12,mp-567554
0.0,-0.39474286500000016,Sc4Ru8,mp-567750
0.0,-0.12512196444444493,Ti4Bi2,mp-568069
2.4855,-0.9692899705027261,Sm2C3N6,mp-568498
0.0,-0.46678380249999973,Sr2Cd2Bi4,mp-568501
0.0,-0.42572970625,Dy8Ni28Sn12,mp-568709
0.0,-0.3125481607692309,Ca28Ga11,mp-568793
0.0,-0.3311081536363638,Ba5Al5Pb1,mp-568809
0.0,-0.7883426915000001,La1As2Ru2,mp-569188
0.0,-0.6113003335185181,Lu24Ag4Te8,mp-569414
0.0,-0.26968374854166716,Sm1Mg2Ni9,mp-569494
0.0,-1.2511979706163627,La3Cr2N6,mp-569565
0.0,-0.6294999258333333,Ca4Cd4Au4,mp-569628
4.080299999999999,-1.2535216550799995,Ba2N6Cl2,mp-569812
0.0,-1.477972220681818,La4C2Br5,mp-569873
0.0,-2.263571009945,Eu2Cl6,mp-569895
1.7068000000000003,-0.9069947161458339,Tl2In6S10,mp-572596
0.0,-2.499243764394866,Cs2Ir1F6,mp-572797
0.0,-0.33632158575000093,Gd3Al1C1,mp-580539
0.0,-0.7788259699999998,Er2Zr2Sb2,mp-5848
0.0,-0.5937148379999997,Tm1Co2Ge2,mp-5983
0.0,-0.5189310571212121,Dy10In8Ni4,mp-607124
0.0,-0.8987130625000006,Gd1Bi1,mp-614481
0.0,-0.44456912074099864,Rb3Cu8Se6,mp-616220
3.4646999999999997,-3.1127921882500003,Ba2Dy1Sb1O6,mp-6192
0.0,-0.401824725,Al12Ni4,mp-622209
1.8748999999999998,-2.8224794939166657,Gd16Au8O36,mp-623092
0.0,-0.7931814322222218,Zr6Ge6Ru6,mp-637736
0.0,-0.43954169800000076,Gd1Fe2Ge2,mp-637965
1.3585000000000003,-2.3304720197416664,Cr4F20,mp-639662
4.520099999999999,-1.9058563172119203,K1P1H2S1O3,mp-643033
3.1109999999999998,-1.235566026291111,Sn1H4N2F2,mp-643902
0.0,-0.6196665057142852,Sm8Ni4Sn16,mp-645182
0.0,-0.2554713078787882,Tm2In8Co1,mp-646456
0.0,-0.25485058000000055,Gd2Ru4,mp-646926
3.9854000000000003,-2.2295257400487016,Ni6P8Pb2O28,mp-651726
6.6899999999999995,-3.42875514440538,Cs4Na2Al2F12,mp-6528
1.8861999999999999,-1.1088672072456909,Cs4Re12S16Br8,mp-683890
3.5629999999999997,-1.4047138522009521,Be2H16N4O20,mp-706913
4.1145,-1.3218195043675003,Sc4H12Cl8O40,mp-756748
0.0,-3.206834439094203,Ba13Nb14O42,mp-757571
0.0,-2.237299771348889,Li4Cu2F12,mp-759169
0.0,-2.8089620021424997,Ba1Rh1F6,mp-7660
3.5023999999999997,-2.280222672595239,Na4Bi2P2C2O14,mp-768140
3.0853,-2.887474840541667,Sr7W4O19,mp-768610