band_gap,formation_energy_per_atom,full_formula,task_id
3.6429,-1.5486180087356323,Cs6Zn2Br10,mp-1188115
0.0,-0.7031701489999996,Ce6Cu6Sb8,mp-1189165
0.05040000000000022,-0.2494082500000001,Tb12Os4,mp-1189565
0.0,-0.26971264625000124,Y4W4C8,mp-1189574
0.0,-2.1805163339375015,Eu4Zr4S12,mp-1189927
0.0,-0.2822700425,Yb10Cd2Cu4,mp-1190072
0.0,-0.5964979159090908,Ba4Mg2Ge8Ir8,mp-1190166
0.0,-0.39477178750000047,Eu2Si4Ni18,mp-1190872
0.0,-0.5838539115277767,Ce4Ni4B16,mp-1191074
0.0,-0.2595704577471262,Cs2Ga18Au10,mp-1192476
0.0,-0.41332585440476216,Eu4In16Au8,mp-1192981
0.0,-0.48297167392857127,Gd2Co18Si8,mp-1193590
0.0,-0.8579950419458124,Ce6Ni6P17,mp-1193687
0.0,-1.184364588076923,Sc8Si4Pt14,mp-1193821
1.2346000000000001,-1.167770553554688,Ba12Sb8Se28,mp-1194583
1.3483999999999998,-3.6290780452317364,Gd12Se6O6F12,mp-1194754
0.0,-0.20662404163043452,Sm2Al40V4,mp-1195763
0.0,-0.6788065289814809,Ti20Ge16,mp-1198692
5.081300000000001,-2.4382041657491427,K4Zr4Ni2H24O12F24,mp-1199679
4.4239999999999995,-3.243630801666458,K4Ti8H8F44,mp-1203037
0.00709999999999944,-0.31545267465517274,Sc20Co24Sn72,mp-1203372
0.0,-0.2421432786231877,Pr2Ti4Al40,mp-1204502
1.0692,-0.49116978013793117,Rb4As4Pd2,mp-1205560
0.0,-0.39631143200000024,Ho4Mg2Ni4,mp-1205562
0.0,-0.5118351707499997,Dy2Mn4Si2C2,mp-1205851
0.0,-0.6274098816666674,Gd2Sn2Ge2,mp-1206580
0.0,-0.7346147209999998,La4Ni4I2,mp-1206895
0.48080000000000034,-1.0287215983333329,Tb1Bi1Pt1,mp-1206989
0.0,-1.8059784195312503,Li1Hf1S2,mp-1207212
0.0,-0.3687988703703703,Dy3In4Co2,mp-1207275
0.0,-0.953146856238096,Zr18Co4P8,mp-1207414
0.0,-1.036615815,Tm4Ni4As4,mp-1207672
0.10280000000000022,-1.259489617647059,Y6Rh1I10,mp-1207685
0.0,-0.4368689306666667,Y1Fe2B2,mp-12077
0.0,-0.6417823908928568,Yb12Ga19Au25,mp-1207769
0.0,-0.7878598556250003,Tm10Sb2Pd4,mp-1207986
0.0,-0.5396474138888886,Ti6Fe6Ge6,mp-1208403
1.1665999999999999,-2.6484686080181037,Rb4Eu8Cl20,mp-1209463
0.0,-1.0321128308333343,Nd4Ni4As4,mp-1209847
0.0,-0.8529644737912084,Pr6Ni20P13,mp-1210024
0.0,-2.316958771316483,Rb4Eu8Cl28,mp-1210291
3.2078999999999995,-2.220266249506803,Ni8Ag8P24O72,mp-1210398
3.0244999999999997,-3.360365529375,Nd12Ho8Ga12O48,mp-1210498
0.0,-0.012594976071428374,Mn1Zn13,mp-1210567
0.34140000000000015,-1.8010748388244449,Mn4Te2O12,mp-1210598
0.0,-0.9982492349999994,Lu4Zn4Pt4,mp-1210625
0.006299999999999528,-1.261782179047619,Lu4P4Pd4,mp-1210791
0.0,-0.1375868954385969,Nd12In1Co6,mp-1211071
4.3828,-2.7711524949163335,In4Pb8F28,mp-1212060
0.0,-1.0093031665476186,Hf4Mn4P4,mp-1212189
0.0,-0.39778534099999946,Ho8Os4C8,mp-1212373
0.0,-0.3418003206896552,Hf6Be15Co8,mp-1212451
0.0,-2.3167975066666657,Eu2Tl2W4O16,mp-1212775
0.0,-0.6167344629166666,Dy16Cd4Pt4,mp-1212919
0.0,-0.695385880357143,Ce4Ga18Rh6,mp-1213907
0.0,-0.5002663800000001,Ba2Si24Pt10,mp-1214345
2.2375999999999996,-3.107828977730263,Ba5Er8Ni4O21,mp-1214489
0.0,-0.1988314009523821,B2Pd12,mp-1214755
1.1837999999999997,-0.5716810155208331,As4Os4S4,mp-1214793
0.0,-0.31329311157894696,Al12Fe7,mp-1214901
0.0,-1.8977619205468743,Yb1Er1Se2,mp-1215456
0.0,-0.30344254624999945,V1Ga1Ni6,mp-1216351
5.3412,-2.8623031141130957,K8B40O64,mp-12183
0.0,-2.425069404285714,Sr8Ru1Rh3O16,mp-1218503
0.0,-0.07952066592105211,Sm1Gd1Co17,mp-1219295
0.0,-0.6077849366666666,Pr1Cu1Ge1,mp-1219977
0.0,-0.09360185333333366,Be5Au1,mp-1220
0.0,-0.6276866519999998,Pr14Au51,mp-1220280
0.0,-2.888440928500001,Nd2Sb1O2,mp-1220313
1.8714999999999997,-1.1111779074903843,Na4Sn1Ge2S6,mp-1221151
5.0206,-3.3073365673804362,Na2Ca20P14O56,mp-1221168
2.2297000000000002,-2.6572793090204088,Na8Mg2Fe2P6O24,mp-1221187
6.1227,-4.048551923376667,K1La1F4,mp-1223447
1.9965000000000002,-2.863017656510001,K8Na2Nb10O30,mp-1224551
0.0,-0.39405006437499956,Ga1Ge1Pt6,mp-1224823
0.0,-0.47923114388888877,Eu2Ag2Sn2,mp-1225251
0.0,-0.36185089249999997,Ca2Zn3Ga1,mp-1227661
2.1632,-3.2296846835546873,Ba6Ta12Fe4O42,mp-1228561
1.4653,-1.147101160411545,Cs16Re24S54,mp-1229160
3.0733,-3.655581364312499,Er2S1O2,mp-12671
0.0,-0.4117551350000008,La4Al4,mp-12684
0.0,-2.3577790782812507,Sm1S1,mp-1269
0.0,-0.6957208916666661,Mg4Pt2,mp-13208
0.0,-0.7317646766666664,Tb4Zn4Rh4,mp-13378
0.0,-0.12229285249999984,Zn13Rh1,mp-13447
7.0876,-3.683446152594099,Cs2Li1Al3F12,mp-13634
0.9137000000000004,-1.7349954412499997,Ca4Sb2O1,mp-13660
0.0,-0.40779641249999976,Li4Ca4Si8,mp-13916
6.4704,-3.584886480232966,Rb2Na1Y1F6,mp-13926
0.0,-3.06332436,Ba2Dy1Re1O6,mp-13932
0.0,-0.48338632104166734,Ti4Ni12,mp-1409
3.7388000000000003,-2.6590359794523812,Na12Al12Ge12O48,mp-14511
0.0,-0.9629514322619054,Zr4P8,mp-1523
0.0,-1.8088814883925002,Hg1Rh1F6,mp-15639
0.0,-0.8493123721428576,Pt6O8,mp-1604
0.36900000000000066,-1.2189222466666674,Tm1Sb1Pt1,mp-16314
0.1745000000000001,-1.4657664400000001,Nd8Te12,mp-16380
3.4974999999999996,-2.616173263033158,Na2Mn12P14O48,mp-16381
0.0,-0.8553401624999992,Tb4Si10Ru6,mp-16478
0.0,-0.48391611454545436,Lu2Al14Au6,mp-16620
1.0668000000000006,-1.7077128514062503,Pr4Cu4S8,mp-16684
0.0,-0.16821711692307745,Al12Tc1,mp-16719
1.5093999999999999,-2.087692613214167,Ba2Ag2Te2F2,mp-16742
3.8594000000000004,-2.644813978261868,Rb4Mo4P8O28,mp-16856
1.1585999999999999,-1.1116502757557802,Rb2Er4Cu6Se10,mp-16884
0.3651,-2.967109915591837,K6Ce2P4O16,mp-17189
0.0,-0.8085672986111108,Nd20Ge16,mp-172
1.8848000000000003,-0.7097163973611116,Tl8Ge2S8,mp-17207
3.7836999999999996,-2.656968945625,Li8Zn4Si4O16,mp-17288
4.9483999999999995,-3.585713310092222,Sm4Sn4F28,mp-17418
3.5439999999999996,-3.3257247384614548,Sr10P6S1O24,mp-17447
3.9034000000000004,-2.874807332913809,Sr10As6O24F2,mp-17777
3.1428000000000003,-3.594570218928571,Ba4Sm8O16,mp-17960
3.9143999999999997,-2.2520172544999997,K4Li12Ge4O16,mp-18002
1.0495999999999999,-1.1272067221194157,Rb2Sm4Ag6Se10,mp-18710
3.3003,-2.5595773872499996,Ca4Ni2W2O12,mp-19114
3.1087000000000002,-2.399678300869047,P8W8O44,mp-19522
0.0,-0.36284091299999977,Ca1Ga4,mp-1976
1.5675,-2.9761488527499997,Ho4Fe4O12,mp-19785
0.0,-0.45695143472222216,Sr2In8Pd2,mp-19991
0.0,-0.47066983975000054,Gd1Rh3C1,mp-20182
0.0026000000000001577,-0.6791315133333337,Gd3Mg3Pd3,mp-20332
0.0,-0.8986485389999999,Ce2Ge4Pt4,mp-20400
0.0,-0.6785893566666661,Ce3In3Ir3,mp-20449
0.0,-0.5099982704166672,La1In1,mp-20582
0.0,-0.42571014516666705,Ce2B4C4,mp-20908
0.0,-0.6567843872916663,La2In4Rh2,mp-21002
0.0,-1.072768055833333,Sm3Sn3Pt3,mp-21007
0.0,-0.687535696666667,Ca2In4Pt2,mp-21027
0.0,-0.5375507940000006,Eu1Si2Au2,mp-21229
0.0,-0.7903711658333332,Tb4Ni4Ge4,mp-21424
0.0,-0.39710374874999976,Ho1In3,mp-21431
0.0,-0.45514577547619084,La4In16Au8,mp-21523
0.0,-2.0909062422780176,Na12Fe4C8S2O32,mp-21590
0.0013999999999998458,-2.328848176083334,Eu16Au8O36,mp-21787
0.0,-0.7488182141666672,Zr4Sb4Pd4,mp-22036
0.0,-2.0989568810200003,Os4F24,mp-22626
0.0,-0.7301554166666667,Ce4Sb2,mp-22678
0.0,-0.7283445053645833,Nb4Se4I4,mp-23051
0.06279999999999997,-1.40586125875,Zr2Br6,mp-23247
3.9884,-1.1624160749449999,As4Cl12,mp-23280
0.0,-0.3680324000000006,Hf2Co4,mp-2337
0.0,-1.0744415149999993,Tm1Pt3,mp-2351
0.0,-0.10781981833333305,Mg8Cu4,mp-2481
0.0,-0.4204865575000003,Ba2Si2,mp-2499
0.00019999999999997797,-2.5309891876913264,Li4Co4P12O36,mp-26015
0.0,-0.40106309706499976,Te4Au2Cl2,mp-27490
1.9183,-1.4441309897166665,K8I4O18,mp-27764
0.0,-0.5215367776923068,Zr3Si6Cu4,mp-27961
0.0,-0.26904212333333355,Nd4Tl2,mp-2816
2.8575,-1.6689692817857147,As8Pb4O16,mp-28537
3.3718999999999997,-2.020796556111111,Tl12Re12O48,mp-28808
0.0,-0.26164583613636433,Gd6Mn4C12,mp-28826
1.4673000000000003,-0.8598008934140626,Na16Cd12Se20,mp-28851
0.0,-0.9116044527380952,Ba8P12Pd4,mp-28894
0.035600000000000076,-0.9016681355949991,Ca4Au2N2,mp-29175
1.8463,-2.4731954947704082,P4W4O20,mp-29366
0.0,-1.0389095350000002,Ce2Si2I2,mp-29535
0.0,-0.3873459297499998,Dy3Al1C1,mp-29676
0.0042999999999997485,-2.8992107402564113,Sr22Re8O48,mp-29908
0.9142999999999999,-1.9797957918691231,Cs12Sb20O56,mp-29970
2.7399,-1.3682052742261905,Ba2B4S8,mp-30126
0.0,-0.2539930194736841,Nd2Zn17,mp-30711
0.0,-0.8859681750000004,Ho1Sn1Pd2,mp-30731
0.0,-0.7414907065000002,La4Sn10Rh6,mp-30755
0.0,-0.7113943624999992,Li1Al2Rh1,mp-30821
0.0,-0.7737130533333326,Tm2Rh4,mp-30865
0.1682999999999999,-0.10923741268973242,Ag6P2Se8,mp-30908
0.0,-0.18248623435897424,Mg6Ga15Cu18,mp-30910
3.6376999999999997,-1.0533316785011764,Sn4N16O48,mp-30989
0.0,-0.7227772030555555,Sc12Si16Re8,mp-31027
0.0,-0.8282069005000003,Sm1Ge2Pd2,mp-31491
0.0,-0.4401859000000002,Ba1Ga4,mp-335
2.2358000000000002,-2.568652345892858,Sr2La4S8,mp-34141
0.0,-0.4422397143055565,Sm1B2Ru3,mp-3467
0.0,-0.6243529095,Nd1Fe2Si2,mp-3489
1.3457000000000001,-0.6235967256250002,Cd1Ga2Se4,mp-3772
0.0,-0.5826966049999995,Pr1Si2Cu2,mp-4014
0.0,-2.9609050621428574,Pr2Cu1O4,mp-4181
0.0,-1.05157269625,Sc1Pt3,mp-481
0.0,-1.907854604523334,Ti2N2,mp-492
0.0,-0.39640843416666627,Si2B4Mo10,mp-4984
0.0,-0.22315969611111086,Cr3Ni3As3,mp-4989
2.486,-1.3598936658622922,Co6H4Se6O20,mp-505097
0.0,-1.5367719075000004,Gd1As1,mp-510374
0.0,-0.7426611968749999,Nd2Ni2Ge4,mp-5215
1.5015999999999998,-2.8070006289569234,Ca8Mn6B6C2O30,mp-532650
0.45389999999999997,-0.45745260800000054,Nb4Te4I12,mp-540924
4.2261,-1.8110346085572917,Na8Se4O12,mp-5416
0.0,-1.4086050566833335,Ag8F20,mp-542298
1.3984999999999999,-2.4839990779075007,Ho1Bi2Cl1O4,mp-549127
3.9993999999999996,-2.93120472809375,K16Al16O32,mp-5525
2.5747,-1.8208227498706895,Cs4Sb2O5,mp-553374
0.7143999999999999,-2.2789468324603175,Cd4Mo4P4O24,mp-553877
2.1993,-3.152958586626667,Sr4Li4Co4F24,mp-554131
2.5452,-1.39394976272375,Zr2Hg6S4Cl12,mp-554183
3.0029999999999997,-2.7952524523015874,Sr4Ag4B28O48,mp-554259
4.590199999999999,-2.658061807707977,K8Mn4P8O28,mp-554535
0.0,-0.7143522650781264,V24S8,mp-555283
0.37240000000000006,-2.5703031796425004,Sr1Ni1F6,mp-555718
5.254899999999999,-2.8491112101607157,Y4P20O56,mp-556335
2.4179000000000004,-1.8438247160704033,Rb4Cr8Bi4O32,mp-557654
4.7329,-3.314380654149444,K4Sc2Si8O20F2,mp-557777
1.7762,-2.552335058101786,Na8V12P8O52,mp-558049
3.5308,-2.0451438873288095,P4Au4Cl4F12,mp-558523
0.0,-3.2845216508925,Ba1Cr1F6,mp-559246
4.2587,-3.9013519537500003,Pr4Sc4O12,mp-559756
3.0496999999999996,-1.6439409720416673,Na4As16Br4O24,mp-559786
1.6741000000000001,-2.5669081093359374,La8Sn4S12O8,mp-560740
3.1498999999999997,-2.610220702580247,Na8Zr4Ti2C8O32,mp-560843
3.9646,-3.162222404713999,Li18Cr6F36,mp-561396
1.8684000000000003,-2.7480433103856923,Cs4V4P8O28,mp-562901
0.0,-0.3662165625,Te2Pd2,mp-564
0.0,-0.10658245833333287,Ta2V4,mp-567276
3.5811,-0.20457897586999962,Pr2C12N18,mp-567763
0.9346000000000001,-0.3900060221261906,Ag5Hg4P8Cl5,mp-568540
0.0,-0.34917166692307633,Li16Zn4Ge6,mp-569373
0.9144999999999999,-0.43187210166666645,Nb2I10,mp-569578
0.0,-0.6780520824074072,Dy10Si17,mp-569825
0.0,-0.5654352184722219,Ho16In4Rh4,mp-570015
2.1028000000000002,-1.4186101019980246,Cs2Tb2Zn2Se6,mp-573710
1.8652000000000002,-1.283559717593751,K6Nb4Cu6S16,mp-581419
0.0,-0.5161164151428571,Ho4Ga21Ni10,mp-581730
0.09989999999999999,-2.722570191598572,Eu4Mo4O16F4,mp-582540
4.4201999999999995,-2.269081771727272,Na2Mg1C2O6,mp-6026
5.3553,-3.265746614583334,Y1Al3B4O12,mp-6062
3.73,-3.0314687399999998,Ba2Nd1Sb1O6,mp-6122
0.0,-0.6118392687499998,Gd2Al4Ni2,mp-630019
0.0,-0.2751145003124993,Ta24Ge8,mp-639805
1.1231,-0.9986068917968751,Tm4Cu4Pb4Se12,mp-640324
3.5378999999999996,-3.0994089222500008,Ba2Y1Sb1O6,mp-6492
0.0,-1.2462266232142858,Pr12Pt4I12,mp-653855
0.0,-0.6038326996289065,Nb12S2I18,mp-654051
0.005799999999999805,-0.688182455535714,Tb2Fe2Si2C1,mp-6624
2.9007,-2.439565430630952,Nb6Tl12P6O36,mp-667345
0.0,-0.9223923713333335,Zr10As10Pd10,mp-669436
0.48360000000000003,-0.21340860175555557,K18Cd3Pb24,mp-680480
0.0,-1.8915959541604477,Pr27Se40,mp-684619
3.4905,-1.5619901024659621,Li4Cd8H4Se8O28,mp-697926
0.0,-0.4557331274999998,Sm1B6,mp-6996
6.3844,-3.5976401465829655,K2Rb4Y2F12,mp-7012
3.9326000000000003,-2.91067649452375,Ca2Mg2As2O8F2,mp-7035
0.0,-2.1206066615312507,K1Ce1S2,mp-7329
0.36329999999999973,-1.86405303815625,Dy8Se12,mp-7368
0.0,-0.18255542983333348,Na2Al2Ge2,mp-7400
0.9579999999999997,-1.86709382625,Cd2Sn2O6,mp-754329
1.2271999999999998,-1.5756941486088973,Rb12Cl4O4,mp-755428
2.4988000000000006,-3.2374091487500003,Ho4Cr4O12,mp-756834
0.0,0.0,Sr1,mp-76
3.9224999999999994,-3.5081592295833324,Ca16Ta8O36,mp-769317
0.0,-0.31731995249999967,Dy1Cd1,mp-770
0.0,-0.8210931500000015,Zr1Si2Ni2,mp-7707
5.7387999999999995,-3.044109151552197,Dy4P12O36,mp-771106
4.5685,-3.7191058607500005,Dy12Al20O48,mp-772195
1.3131,-2.487480894168362,Cs1Ru1F6,mp-8015
0.0,-0.6683413850000003,Er2Si2Cu2,mp-8122
0.0,-0.6742031933333329,Li3Pr3Ge3,mp-8481
0.0,-0.9562241499999997,Er2Ir1Pd1,mp-861984
0.0,-0.6915605899999999,Li1Be1Pt2,mp-862316
0.0,-0.5910309131249996,Pm1Zn1Au2,mp-862974
0.0,-0.8550430987500004,Pm2Ir1Pt1,mp-863721
0.0,-0.1482641349999998,Mn1V3,mp-864984
0.0,-0.593697576833334,Mg4Al2B4Ir10,mp-865047
0.0,-0.7986118641666664,Yb2Ag1Pt1,mp-865660
0.0,-0.9017426187500002,Yb1Er1Pd2,mp-865753
0.0,-0.5051945995833336,Ti2Mn1Os1,mp-865768
0.0,-0.41643204874999995,Cr1Si1Ru2,mp-865791
0.0,-0.16881942500000058,Yb1Nb1Ru2,mp-865857
0.0,-0.4085505999999999,Ga2Ir1Ru1,mp-866041
0.0,-0.7849307950000002,Sc1Zn1Pd2,mp-867135
0.0,-0.7201102750000006,Li1Ga1Pt2,mp-867170
0.0,-0.2680566950000003,Sr1Mg1Tl2,mp-867172
0.0,-0.6341404800000001,Li1Tm2Ir1,mp-867220
0.0,-0.28891778958333303,Dy1Cd1Ag2,mp-867256
0.0,-0.0639699975000001,Li1La2Os1,mp-867813
6.2289,-3.350165450778522,Rb2Mg1F4,mp-8861
3.8891,-2.2177809924374996,Na2Li4As2O8,mp-9066
0.0,-0.24292244437500088,V2Re1W1,mp-971754
0.0,-0.31781556502463004,Rb1Cr5Te8,mp-975531
0.0,-0.6726284549999995,Ho1Cd1Au2,mp-977415
0.0,-0.4610259781249999,Sm1Lu1Hg2,mp-978805
1.2547000000000001,-0.5728443349780001,Te12Rh2Cl6,mp-979264
5.3759999999999994,-3.0056591283231953,Cs2Rb1In1F6,mp-989605
0.0,-0.6298464619279998,La2Os2N6,mp-989621
0.0,-0.38748801568452507,Fe10B4P2,mp-9913
0.0,-0.8943285150000007,Y2Ge2,mp-9971
0.0,-1.3982778933582989,Rb1Ag1Cl3,mp-998201
1.7109000000000005,-3.387926089750001,La2Mg1V1O6,mvc-11733
0.0,-1.5654359762499996,Sm8Cu4As12O4,mp-1005792
0.0,-1.8020548003645835,Ti1S1,mp-1018028
0.0,-0.29621359874999964,Cr1Sn1Rh2,mp-1018066
0.0,-0.6267019924999997,Er2Ga2,mp-1018077
0.0,-1.0284233844760002,Tm3Al1N1,mp-1018641
0.0,-0.6901727524999993,Li3Pr1Bi2,mp-1018770
0.0,-1.0662646858333342,Nd2Sb2Pd2,mp-1018815
0.0,-0.6661602799999997,Pr2Co2Si2,mp-1018892
3.1934999999999993,-1.4805905421555552,La4Si12N20,mp-1019967
0.0,-0.43755009649659876,In1P1Pt5,mp-1025213
1.5390000000000001,-1.6037195424399995,Sr2Hf2N4,mp-1029396
0.0,-0.30902433687499986,Gd1Ni1C2,mp-1065668
0.0,0.0,F4,mp-1067793
0.0,-0.5694536369999994,Sr1Ge3Pt1,mp-1068239
0.9140000000000006,-1.8206470426707497,Ce2Se1N2,mp-1069558
0.0,-0.33212147599999964,Ba1Co2Ge2,mp-1070253
0.0,-0.3308640417500001,Zr1Ru3C1,mp-10706
0.0,-0.6089250066666665,Eu2Bi4,mp-1077479
0.0,-1.2174583030949995,Pr4Bi2N2,mp-1078335
0.0,-1.2966820874999998,Ho4Pt4,mp-1079180
0.0,-0.7083425618750008,Nd2Sb4Au2,mp-1079312
0.0,-0.454698553888889,Dy3Zn3Ni3,mp-1079341
0.0,-0.651315478888889,Ce3Rh3Pb3,mp-1079682
0.0,-0.4280917000000007,Y3In3Cu3,mp-1080624
0.0,-0.3151557143333328,Li4Ag2Sn4,mp-1080714
0.0,-0.5813072421875004,As4Pd4S4,mp-10848
0.0,-0.7070689688888893,Lu3In3Au3,mp-1091370
0.0,-0.1405102356250003,La2Mg6,mp-1094174
0.0,-0.0822750783333331,Mg8Cd4,mp-1094909
0.0,-2.6682792989633333,Eu4Mn4O10,mp-1099747
0.0,-0.8209971966666659,Y4Sn4Ir4,mp-1101774
0.0,-1.0651243300000004,Yb4Al4Pt4,mp-1102117
0.0,-0.6499695725000004,Eu4Ge6Au2,mp-1102390
0.0,-0.7488626136363634,Gd1Ge4Rh6,mp-1102792
0.0,-0.509668155,Eu4Cd4Ge4,mp-1102923
0.0,-0.3335193003571431,Y3Zn11,mp-1103536
0.0,-3.07740754801,Nb4O4F6,mp-1103792
0.0,-0.6230092285714284,Lu3Ga8Ir3,mp-1104032
0.0,-0.15558505358974356,Ti1Be12,mp-1104067
0.0,-0.3021437065384616,Er1Al8Cu4,mp-1104269
0.0,-0.749897857857143,Tm6Ge8,mp-1104486
0.0,-0.5768767893333338,Gd3Ga9Ru3,mp-1104851
0.0,-0.5517338985714285,Zr2Ni8As4,mp-1104853
0.0,-1.2234287849999999,Tb6Pt8,mp-1104864
0.07350000000000012,-0.9584140485344825,Cs2Gd2Te8,mp-1104966
0.0,-0.5459765565625005,Nd10Pb6,mp-1106152
0.0,-0.37340797312499996,Ce4Zn10Sn2,mp-1106202
0.0,-0.45023701166666674,Ca1Hg2,mp-11287
0.0,-0.3146926366666669,Dy1Cd2,mp-11294
0.0,-0.6333475242857146,Dy2Ni8As4,mp-11340
0.0,-0.5031280012499995,Tm4Ni4,mp-11525
0.0,-0.04214399625000009,V1Zn3,mp-11578
0.9472,-0.39492550589795883,K4Zn1P2,mp-11719
0.0,-0.29087657613793105,Rb2Au3,mp-11814
0.0,-0.5590059775,Eu2Cd1Sn1,mp-1183888
0.0,-0.4254565266666668,Er2Ag1Hg1,mp-1184075
0.0,-0.8020327112500003,Er1Mg1Au2,mp-1184216
0.0,-0.4314424045833327,Gd2Cd1In1,mp-1184514
0.0,-0.5356120466666674,Li1Ti1Pd2,mp-1185238
0.0,-0.3199971949999991,Li1Gd2Ga1,mp-1185394
0.08070000000000022,-0.014481414399999911,Mg149V1,mp-1185641
0.0,-0.2015249575000002,Pm2Mg1Cd1,mp-1186474
0.0,-1.0289027706249998,Zr4Pt12,mp-1188129
0.0,-0.9134091037500003,Tb6Ge6Ir4,mp-1188472
0.0,-0.6492163538888889,Ta6Si6Ru6,mp-1189212
0.0,-0.942068984166666,Y8Si12Rh4,mp-1190773
0.0,-0.43473089406249993,Rh8Se16,mp-1192175
1.3891,-1.9582438781250002,Ba4Tm8Se16,mp-1193169
1.7230999999999999,-0.9920382245574199,Cs12Ge4Se12,mp-1193194
2.0955,-1.036012979079382,Cs10Ga6Se14,mp-1193337
0.0,-0.6084602042685715,V16Ni8N4,mp-1193390
1.7362000000000002,-2.521876998035715,Ba4Ho8S16,mp-1193583
0.0,-0.7883872714423078,Nb8Fe2Se16,mp-1193638
0.0,-0.4951429453571429,Pr12Ga8Ni8,mp-1193804
1.5291000000000001,-1.8759791813243243,Na4Pd2S16O52,mp-1195013
4.1183,-3.0888387356458975,K6Ba6Li4Al8B12O40F2,mp-1195057
0.7509000000000001,-0.809909063888889,Sr12Sn8As16,mp-1195093
0.0,-0.21934152271739077,La2Al40V4,mp-1195666
4.0108999999999995,-2.8552813243066613,Cs4Rb8Sb16F60,mp-1196297
0.0,-0.35060836777777776,Ta16Ni4Te16,mp-1197091
0.0,-0.5425839442499999,Ho24Ga16,mp-1197194
0.681,-1.6999601831666666,Tb40Ir8Br72,mp-1197952
0.0,-1.4343168885544235,Cu2Pb10Se8Cl8O24,mp-1198565
0.0,-1.4183310293642242,Eu24Sb24S68,mp-1198785
0.0,-0.5228657231249999,Zr12Mn12Ge24,mp-1198917
0.0,-0.10528341760869546,Pr2Cd40Ni4,mp-1199068
0.0,-0.3106282457547165,Nd12Al86Mo8,mp-1199159
1.6197,-0.9338372304319327,Cs8In8Se16,mp-1200720
0.0,-0.7472872159920629,Ho4Fe20P12,mp-1200877
0.0,-0.5336485796296304,Ce4B16Ru16,mp-1201565
1.8439,-1.8312379474375007,Pr16As8S36,mp-1201868
5.000299999999999,-2.8634333890357153,La4P20O56,mp-1204624
0.24980000000000002,-0.3810723955000001,K2Ag6Te4,mp-1205342
0.0,-0.6006193099999997,Nd4Cd2Rh4,mp-1205619
0.0,-0.6933612790000006,La4Sc2Si4,mp-1205647
0.0,-0.3331403960000003,Yb1Zn2Si2,mp-1206961
0.0,-0.36163095625000086,Fe2Co1Si1,mp-1207117
0.0,-1.3063235013281247,Zr18Re8O6,mp-1207437
0.0,-0.1645029517647057,Yb1Fe4Sb12,mp-1207658
0.0,-0.4743675262499997,Tm16Cd4Pd4,mp-1208067
0.0,-2.599750446348889,Tl2V1F6,mp-1208154
0.0,-0.6513474322222221,Tb3Al9Ni6,mp-1208327
0.0,-0.7947772178571435,Tb6Ge8,mp-1208462
0.0,-0.9587168,Sm12Si12Pd12,mp-1208992
0.9672000000000005,-0.7482518850053879,Rb4Cu4Te4S12,mp-1209173
0.0,-0.1968699421052632,Sm12Co6Pb1,mp-1209696
0.0,-0.7009550833333336,Pr12Ni4Ge8,mp-1209802
0.0,-0.3448809290384608,Nd2Al20Fe4,mp-1209904
0.0,-0.7033504440000001,Lu1Si2Os2,mp-12101
0.0,-0.8357601278571423,Lu4Al18Ir6,mp-1210911
0.04549999999999965,-1.2870179185706345,Rb2La10Co2I17,mp-1210943
0.0,-1.1778576080357144,Li1Cr4Ga1S8,mp-1211167
0.0,-0.6269450045833332,La2Al6Ni4,mp-1211232
0.0,-0.26097006571428544,La4Cu20Sn4,mp-1211431
1.6299000000000001,-1.3521267459907418,K4Ti2Cu4S8,mp-1211474
0.0,-0.8215212116666658,Li4Er16Ge16,mp-1211564
0.0,-0.886382229166666,Ho4Sb4Ir4,mp-1212101
0.0,-3.410098534702383,Gd10B6O26,mp-1212669
0.0,-0.8243612424999998,Er8Sc12Si16,mp-1212960
0.0,-2.788434800833334,Eu8Mo4O24,mp-1213281
3.3821,-1.9622157349892242,Cs8La4Br20,mp-1213736
0.0,-1.2372432010456065,Cs2Pr10Co2I17,mp-1213749
2.0566999999999998,-3.00803900225,Ca4Nb2Fe2O12,mp-1214121
0.0,-0.19477149344827624,Be15Nb6Cu8,mp-1214241
4.8769,-2.860034046532,Ba8Tb4Cl28,mp-1214626
2.278,-2.4540365859036934,Cs8Mo12P12O68,mp-1214995
0.0,-0.38046328458333417,Zr4V2Re6,mp-1215627
0.0,-0.7990197149999995,Y2Ga2Au2,mp-1215979
0.0,-0.049316570000000226,V1Cr1,mp-1216394