band_gap,formation_energy_per_atom,full_formula,task_id
0.0,-0.36700193875000053,Ta1Ga1Ni6,mp-1217921
0.5196999999999999,-2.9837110816071437,Sr10V6O26,mp-1218652
0.0,-0.545837445583335,Sc3Nb3B4Ru10,mp-1219392
3.1978999999999997,-3.3599325719427586,Rb2Mg2Cr2F12,mp-1219571
0.0,-0.5975456207364336,Sc30In40Rh16,mp-1221266
0.0,-0.2802790774999999,Li2Mg1Hg1,mp-1222646
0.0,-0.3347534995833336,La1Zn4Ni1,mp-1222733
0.0,-0.6314455375000007,Hf4Al6Pd2,mp-1223870
0.0,-1.5732200963962766,La12Mn3Al4Se28,mp-1224120
0.0,-1.4485693252825005,Hf1Zr1C1N1,mp-1224228
0.0,-0.1031666852736844,K18Na46Tl31,mp-1225049
0.0,-0.7844661512637353,Eu2Fe1P3Pt7,mp-1225377
0.0,-0.5320029308333337,Er1Al1Ni4,mp-1225548
4.536,-1.2538960802717245,Cs2C2N2O2,mp-1225916
1.5151000000000001,-1.826655816442986,Cs6Y14Se24,mp-1226222
2.0791000000000004,-1.877122556388889,Cr2Bi2Te2O12,mp-1226306
0.0,-0.36284764166666683,Ca2Ga7Ag1,mp-1227351
2.8516000000000004,-3.467049902250001,Ba2Tb1Nb1O6,mp-1228310
0.8324999999999996,-1.8375502853125005,Nd2Zn2Sb2O2,mp-12516
0.0,-0.3053938946153838,Yb2Al20Fe4,mp-12789
0.0,-0.4906089236111117,Tb2Ni8B2,mp-12964
0.0,-0.3288568033333337,Y3Mg3Al3,mp-13090
0.0,-1.1475793549999995,Sc2Si2Pt4,mp-13572
3.6444,-2.7166826417639998,K2Na1Tl1F6,mp-13798
6.864000000000001,-3.6254401199053787,Cs2Na1Er1F6,mp-13816
0.0,-3.0533773550000007,Ba2Tb1Re1O6,mp-13931
3.1504,-2.728174885865455,Sn6F16,mp-1443
2.8078000000000003,-2.5605361458437494,K8Si8Sb8O40,mp-14721
0.0,-0.3821983958673475,Re3P4,mp-1474
0.0,-0.18996713161764778,Nd1Fe4Sb12,mp-15026
0.0,-0.8315613641666657,Sm20Ge16,mp-1506
0.137,-0.5997124627040813,Sm2Zn6P6,mp-15109
0.0,-0.20872471062499987,Nd3Tl1,mp-1533
0.0,-2.3271903970312513,Y1S1,mp-1534
4.096299999999999,-0.7519416332817223,Zn4P6S1N12,mp-15833
0.0,-0.47181609216666587,La1Si2Ag2,mp-16237
0.0,-1.1154360844285711,Zr2Te2P1,mp-16765
3.0917,-1.9433828673500002,K8Li12Fe4O16,mp-16955
1.2718000000000003,-0.5433145541145828,Tl8Te4S12,mp-17172
0.0,-0.2837623766666664,Zr2Fe4,mp-1718
0.4347000000000003,-1.0500309758333337,Ba20Sb16,mp-17399
4.2120999999999995,-3.269444087583334,Mg8Ta4O18,mp-17481
0.0,-0.502870486666667,Sr1Ga2,mp-182
0.0,-0.5444542450000002,Sn4Pd8,mp-1851
0.0,-0.4122194374999999,Yb1Cd1,mp-1857
0.0,-0.6606546655555555,Y10Fe4Te4,mp-18706
0.0,-0.5923795904166665,Mg18Pt6,mp-18707
3.9516999999999998,-2.308235224614225,Cs4Na2V2O8,mp-19447
3.1849000000000003,-3.5506545641666682,Gd2Nb2O8,mp-19721
0.0,-0.7350427358333332,Er4Ge4Ru4,mp-19841
0.0,-0.4997301964166674,Dy3In1C1,mp-19881
0.0,-0.343621566875,La1Tl3,mp-2001
0.0,-1.7086624267500006,Ca3Pb1O1,mp-20273
0.0,-0.3986494666666669,Tb2Cu2Pb2,mp-20290
0.0,-0.39845708750000064,Eu1Pb3,mp-20309
0.0,-0.6031133533333334,Ce1Al3Ni2,mp-20338
0.0,-1.0432243166666677,Tb4Si4Ir4,mp-20383
0.0,-0.23772093937500038,Tl8Te8,mp-2081
0.0,-0.1042423137499986,Mn1Co2Sn1,mp-20840
0.14720000000000066,-1.8790832261899997,Y1N1,mp-2114
0.0,-0.6694641358333335,Nd2Ge2Ru2,mp-21194
0.0,-0.38525121777777827,Y4In2,mp-21294
0.0,-0.25414171788888873,Ca6In8Ni16,mp-21677
0.0008999999999996788,-0.5532721174999998,Ce20Sn16,mp-21693
0.0,0.0,F8,mp-21848
0.0,-1.7612670354375006,Ce4Cr4S12,mp-21871
0.06320000000000014,-0.5847881516666664,Y12Ni12Sn24,mp-21981
2.8682,-2.1653127467045454,V8Pb8O28,mp-22005
0.0,-0.5283025968750001,In6Pd10,mp-22146
0.0,-0.34004925266666675,Zr4In2Co4,mp-22150
0.0,-0.3013533412499996,Tb2Co2C2,mp-22158
0.0,-1.07242328,Ho4Si4Ir4,mp-22222
0.9858000000000001,-0.4606532405950001,Li3N1,mp-2251
0.0,-0.6677747058333333,Zr4Si4Cu4,mp-22522
0.0,-0.5604593677499998,Tm3Pb1C1,mp-22542
2.7744999999999997,-0.9873744572500008,Tl1I1O3,mp-22981
3.6163000000000003,-1.0627223533333332,Mg1I2,mp-23205
3.7256,-1.4030266225000005,Li8I8O24,mp-23384
0.0,-0.15095070874999905,Ga2Mo6,mp-2377
0.0,-1.022732594999999,Dy1Pt3,mp-2465
1.8829000000000002,-0.9837788420312505,Ga4S4,mp-2507
0.0,-0.3815360683333336,Ca1Si2,mp-2700
1.856,-1.9955960407205884,K4Sb8O22,mp-27140
2.6569,-1.876496013750001,V8Ni8O28,mp-27157
0.0,-0.17843755259765626,Ga4Ag36Se24,mp-27163
0.4791000000000001,-0.9174174270689661,Rb2Ni2Br6,mp-27409
0.0,-1.5774260266300013,Zr2Cl2,mp-27440
1.4342000000000001,-1.0038003479779416,Au4Se8O22,mp-27441
3.4818000000000002,-1.8653625609722226,Li8Te8O20,mp-27811
0.014499999999999957,-0.2133577449999997,Li1Ir1,mp-279
0.0,-1.491746083571428,Sc1P1,mp-2807
3.227,-3.0803384814537034,K2Ti2O5,mp-28075
0.0,-0.5926594255000005,Nd1Si2Cu2,mp-2877
0.0,-0.3554976934374996,Sr8Mg8Si16,mp-29002
0.0,-0.42273492931818296,Pr4Re6B12,mp-2933
0.0,-0.4474630181666669,Dy2B4C4,mp-2958
0.0,-0.7765887966241503,V12P6C3,mp-29634
0.0,-1.4225592117857144,La3Ga1Br3,mp-30207
0.0,-0.6029295651612903,Mg5Si16Pt10,mp-30324
0.0,-0.7183851343181819,Sr18Cd8Bi18,mp-30447
0.0,-0.53376959625,Yb6Sn26Rh8,mp-3046
0.0,-0.3203558333333332,Tb1Cd2,mp-30497
0.0,-0.1593775734615381,Er1Zn12,mp-30614
0.0,-0.5722209647500002,Sc24Ga16,mp-30666
0.0,-0.6274222075,Tm12Ga20,mp-30677
1.4266999999999999,-0.30361657812997306,Rb8P42I2,mp-31279
1.3384,-0.30257441776923055,K8P42I2,mp-31280
0.0,-0.8313398549999995,Pr2Sn2Au2,mp-31412
0.0,-0.6685981813809528,Ba2Ni18P10,mp-3202
0.0,-0.5126628760000003,Sr1Ni2Ge2,mp-3207
0.0,-1.5223103566015634,Nb12S20,mp-32983
0.0,-1.9043856916666673,Tc4O8,mp-33137
0.0,-2.400263260500001,Sr5Bi3O12,mp-33444
0.0,-0.2735104900000002,Mg1Cu1Sb1,mp-3522
3.1590999999999996,-2.6264545211249994,Nd6Sb10O24,mp-3782
0.0,-0.3945254646666669,Al1Fe2B2,mp-3805
1.0893,-1.7939040650000007,Cd8Ge4O16,mp-3917
0.0,-0.6210314887500005,Sc3Tl1C1,mp-4230
0.0,-0.169242145,Pr1Sb12Os4,mp-4251
0.0,-2.036018745357143,Nd2Cu4O8,mp-4371
2.1155,-1.067401717321429,Cd1Ga2S4,mp-4452
1.303,-1.6606245161309527,Tl6B2O6,mp-4584
0.0,-0.364024480371353,Cs4Sn2Au7,mp-510696
0.0,-0.7165734607142856,Si16Rh12,mp-540791
0.0,-0.6909217430000005,Lu8Fe12Si20,mp-541557
4.3948,-2.136875615775862,Cs4Ba8Br20,mp-541722
0.0,-0.532743319285715,Er2Ni12As7,mp-542718
2.8533999999999997,-2.110224844892857,K8Li8Cr8O32,mp-555206
2.8404,-3.5703056144214282,Ca2Cr2F10,mp-556748
2.0838000000000005,-3.0524757133139997,K1V1F3,mp-557257
0.0,-2.7308589714053797,Cs4Na2Co2F12,mp-558211
2.0229,-1.0997294633,I8Cl8O8F8,mp-558330
0.0,-2.1547386663091666,Co3F9,mp-559435
3.4711,-2.6518668334949713,Rb8Ca4V8O28,mp-559758
4.6495999999999995,-2.9434991036096934,Na10Ca4Al2P8O32,mp-559777
1.8878000000000001,-2.0855390883333333,Li2V6Te4O24,mp-559938
2.6655,-1.913027363655173,K4Mo6As8O40,mp-560268
0.0,-2.809233048420635,K2Eu2P8O24,mp-560292
2.3627000000000002,-1.9679801384039044,Rb6Hg4S6Cl2O24,mp-560324
3.5357999999999996,-2.806732278402778,K2Na2Ti2O6,mp-560767
5.1064,-2.802195638799474,Cs8Ba2P12O36,mp-560944
7.901199999999999,-4.09675794996,Li2Lu2F8,mp-561430
0.0,-0.5886907766666667,Pr2Co2Ge2,mp-567712
0.0,-0.21214701791666654,Pr2Zn22,mp-568148
0.0,-0.3527032792307698,Eu1Al8Fe4,mp-569200
0.0,-0.20647681274999882,Sm8C12,mp-569335
0.0,-0.4524107742857143,Ce1Si2Au4,mp-569496
0.0,-0.6690900201851852,Ho10Si17,mp-569851
0.0,-1.6331653748958328,Pr4Se8,mp-570205
0.0,-0.6076083320000002,Ba2Sb4Au4,mp-570298
2.2061,-1.624075281912727,Ba8W2N8Cl4,mp-570453
0.0,-0.1448060550000001,Tm2Fe4,mp-571183
0.0,-0.38285223277777825,Mg3Ni9B6,mp-571428
0.0,-0.10819153377451084,Tb8Fe56B4,mp-5759
0.0,-0.8543653887499998,Ho4Ge8Pt4,mp-580192
2.0845000000000002,-2.70950940242626,Cs8Ti4V12P12O72,mp-581138
6.0172,-2.3114416424953332,Li4Zr12H72N16F76,mp-601344
0.0,-0.9486385759375002,La12Si8Rh12,mp-601852
0.0,-0.7395291830555561,Sm3In3Au3,mp-621351
0.0,-0.7752400744999995,La4Ge10Ir6,mp-621659
0.0,-0.584017640833333,Yb8Ge16Ru12,mp-642651
0.0,-0.5117868680303029,Lu10In8Ni4,mp-646321
3.0951999999999997,-1.3821828129296883,Pb4Se8O20,mp-662535
2.9436,-3.009537294230769,Ba32Zr12Sb16O96,mp-667372
0.0,-1.7965893946488105,Na2Ce16Se24,mp-675013
0.0,-0.7956405737500002,Ni4Rh2S8,mp-675691
3.507199999999999,-3.557129836125,Sr6La2Ta3Al5O24,mp-676456
4.1637,-4.001096691578947,Tm8Zr6O24,mp-677391
0.0,-0.6561769215686275,Ca62Sn40,mp-680302
0.0,-0.945960033421054,La20Ga10Br8,mp-680502
0.0,-0.3560850805803568,Ni52Sn32P12,mp-683937
2.2721999999999998,-2.837772619658651,Na12V8P8O32F12,mp-694937
3.8924999999999996,-3.1475812705,Na2Tb2O4,mp-6964
5.1723,-2.3481194736679996,Na2Ca4Al8H16C8Cl2O40,mp-698491
1.3237999999999999,-1.613067926553691,Ag6P3H3O12,mp-707138
0.0,-0.517965291428571,Ba3Al2Sn2,mp-7377
7.7298,-4.4683978102675,Sm4F12,mp-7384
3.5662999999999996,-3.7483569076893946,Sc2Ti2O7,mp-753802
0.0,-0.4296968320000005,Gd1Al2Ge2,mp-754689
5.3661,-2.878830920464286,Ca4P12O34,mp-758337
0.5478000000000001,-2.3939675717717135,K2Mn4P4H2O18,mp-758391
0.0,-0.4053858850000003,Tm1Al3,mp-768
4.1974,-3.449278389916667,Sr8Ta4O18,mp-769271
4.062099999999999,-3.725220140232684,La18P6O42,mp-779590
1.1070000000000002,-0.38077487857142805,Al2Hg1Te4,mp-7910
0.0,-0.6900901327232134,V4P2C2,mp-8044
0.0,-0.6171813608333329,Nd2Si2Cu2,mp-8120
0.0,-0.2828905725000004,Ga1Ni3,mp-815
3.3082,-2.7275935399553797,Cs1Cd1F3,mp-8399
0.0,-1.0974000524375,Cr4S6,mp-849081
0.0,-0.4360505012499998,Li1Ho1Hg2,mp-861874
0.0,-0.30297882875000015,Li1Er1Tl2,mp-862492
0.0,-0.5110051574999996,Li1Gd2Ir1,mp-862765
0.0,-0.3799760928571431,Te4Pt3,mp-8628
0.0,-0.49885051782608636,Er4Ga16Co3,mp-862806
3.1016,-1.5515337088399999,Pb2Cl4,mp-862871
0.0,-0.6436383552083331,Pm1In1Rh2,mp-862921
0.0,-0.6741919337499995,Pm2Ir1Rh1,mp-863722
0.7705000000000002,-1.0530313599399985,Mg2Mo2N4,mp-864954
0.0,-0.5098437587499998,Mn2V1Si1,mp-865026
0.0,-0.1595913637500006,Fe1Ge1Ru2,mp-865191
0.0,-0.5609168024137932,Ti6Al16Ni7,mp-865235
0.0,-0.22091039124999945,Lu2Mg1Os1,mp-865315
0.0,-0.4121406887500001,Tm2Ga1Os1,mp-865339
0.0,-0.5661428836111119,Lu4Ni4B16,mp-865491
0.0,-0.44814822666666565,Ti1Nb1Tc2,mp-865655
0.0,-0.849559093749999,Ho1Ga1Rh2,mp-865696
0.0,-0.46927348249999934,Be2Cu1Pt1,mp-865869
0.0,-0.12800936500000049,V1Fe3,mp-866134
0.0,-0.8757072205357144,La16P8C8,mp-866691
0.0,-0.2725694575000004,Li1Ca2Ga1,mp-867805
0.0,-0.09968328500000023,Ga1Tc1,mp-867841
0.0,-0.7084909702083331,La1In1Au2,mp-868003
0.0,-2.155600038638061,W18O49,mp-907
2.1586999999999996,-2.156016381082974,Cs1Tb1S2,mp-9085
0.0,-0.5337146806249997,Dy10Ni4Sb2,mp-9353
0.0,-0.9741785593749999,Sm2Te6,mp-9399
0.0,-0.05227667532142861,Na2Zn26,mp-950
0.0,-0.6905965400000005,Pm2Zn1Pt1,mp-983154
0.0,-0.7389444394999998,Sm4Ge10Ir6,mp-983234
0.0,-0.9049760494279994,Y4Re4N12,mp-989647
0.0,-0.8836659094022987,Rb1Ag1Br3,mp-998212
1.5933000000000002,-1.8214915695312501,Tb1Tl1S2,mp-999119
0.0,-0.2902134350000001,Sm1Ni1C2,mp-999144
4.4437999999999995,-2.4088258095914283,Te1F6,mvc-15700
0.0,-0.8314972487500008,La2Pd2,mp-1002115
0.0,-0.6315273624999991,Ce2Au2,mp-1018087
1.0135000000000005,-0.48571010333333337,V1I2,mp-1018138
0.0,-0.4416739061111106,Pr2Zn2In2,mp-1018952
0.0,-0.5977828000000004,Ho2Cu2Sn2,mp-1024954
0.0,-0.24322056861111108,Ho1Cu4Ag1,mp-1024987
0.0,-0.6752168222222217,Dy1B2Ir3,mp-1024993
0.0,-0.578509752202381,Ho2B4C1,mp-1025183
0.0,-0.3921927514285711,Cd1As1Pd5,mp-1025294
0.0,-0.5509752117745447,Li12Fe2N8,mp-1029739
0.0,-0.8441736621978027,Nb5Ni4P4,mp-10430
0.0,-0.8964207860000002,Lu1Si2Ru2,mp-10453
0.0,0.0,Eu2,mp-1057315
0.0,-0.4787500089999995,Sr1Ge3Ir1,mp-1068235
0.0,-0.6545298259999995,Ce1Si3Os1,mp-1068364
0.0,-0.10908058714266673,In1Co3N1,mp-1068786
0.0,-0.8209395209999997,Ce1Si3Rh1,mp-1070394
0.0,-0.2174169494444443,Dy1Cu4Ag1,mp-1072033
0.0,-0.3795055145238102,Pr1In5Ir1,mp-1078092
0.0,-0.5179439520000002,Ce4Al2Ru4,mp-1078316
1.9935999999999998,-1.7156534906330814,Rb1Er1Se2,mp-10784
0.0,-0.6584041331249999,Sm2Co2Ge4,mp-1078752
1.2921999999999998,-0.9047461768571431,Ca4Cd2P4,mp-1078908
0.0,-0.5245853449999999,Ho3Sn7,mp-1079218
0.0,-1.2515731232142855,Sm2P2Pd2,mp-10868
0.29300000000000015,-0.17462410374999981,Cd1Cu2Si1Te4,mp-1087540
0.0,-0.7385420549999999,Pr2Al4Au4,mp-1091396
0.0,-0.45864644516666714,La2B4Os4,mp-1095136
0.0,-0.2612974566666679,Zr4V6Ru2,mp-1102307
0.0,-0.627946661666666,Hf4Si4W4,mp-1102732
0.0,-0.8761246190476181,Nb4Fe4P4,mp-1102980
0.0,-1.0523510795833328,Nd2Si4Rh6,mp-1103026
0.0,-0.3610794624553567,Bi4Pd6Se4,mp-1103697
0.0,-0.6472368097959185,Sr2Ni4P8,mp-1103788
0.0,-1.1843000993750001,Lu4Si4Pt8,mp-1105597
0.0,-0.8688155237499995,Nd4Ge4Pd8,mp-1105807
0.0,-0.7285322687500004,Tb10Sn6,mp-1106357
4.5162,-2.799275621489863,Cs2Rb1As1F6,mp-1111968
3.4926999999999997,-3.0780407526220457,Cs2Al1Ag1F6,mp-1113614
0.0,0.0,Y2,mp-112
0.0,-0.29763151133928645,Ni6Se8,mp-1120781
0.0,-0.3803908980952393,P4W2,mp-11328
0.0,-0.5704200414583328,La3Co2Sn7,mp-11356
0.0,-0.37501055499999936,Sc1Zn1,mp-11566
3.4952,-1.9584064574166682,Na4Bi2As2C2O14,mp-1176418
0.0,-0.36148546999999986,Mn1Pt3,mp-1180
3.4295999999999998,-2.389409906408719,B18Pb16O42F2,mp-1182634
0.0,-0.05606062499999975,Ga3Tc1,mp-1183998
0.0,-0.026598537499999964,Fe3Rh1,mp-1184364
0.0,-0.7362740900000002,Gd1Y1Ir2,mp-1184732
0.0,-0.346198027916667,La2Tl1Ag1,mp-1185050
0.0,-0.5809380900000001,Mg2Ir1Pt1,mp-1185768
0.0,-0.13773542125000038,Mg1Sn1Ru2,mp-1185980
0.0,-0.21596114437499914,Nb2Re1Ru1,mp-1186207
0.0,-0.06539103125000167,Os6W2,mp-1186374
0.0,-0.3153293068749998,Pm1Tm1Zn2,mp-1186657
0.0,-0.20646801250000024,Sc6Tl2,mp-1186974
0.0,-0.6684545193749996,Tb1Pm1Ir2,mp-1187370
0.0,-0.8437214250000009,Tm1Mg1Pd2,mp-1187590
0.0,-0.5543554341176472,Nd4Mg7Ge6,mp-1188412
0.0,-0.24239368562500108,Y12Os4,mp-1188757
0.0,-0.7150299414999999,Tb4Sn10Rh6,mp-1189471
0.0,-0.8678103062499991,Pr4Al4Pd8,mp-1189783
4.7747,-1.9544995933839213,Ti1H8N2F6,mp-1189965
0.0,-0.42764054722222195,Gd4Al2Ge12,mp-1190055
0.0,-1.3636132816066666,Eu8Si4N12,mp-1191010
3.9010000000000002,-3.200820540937501,Sr4Zn2Si4O14,mp-1191240
4.639100000000001,-1.9393451498409087,Te4H4O6F8,mp-1191341
2.7935999999999996,-3.441537254659092,Tb6Sb2O14,mp-1191378
0.0,-0.6366952327777776,Er4Fe4B16,mp-1191434
0.0,-0.6306716474242416,Ho6Mn2B14,mp-1191455
4.780399999999999,-3.3442362012896667,Na5Ho4Si4O16F1,mp-1192403
4.7279,-3.3375785986229998,Na5Tb4Si4O16F1,mp-1192492
5.739800000000001,-4.195884525756428,La2Zr4F22,mp-1192580
0.0,-0.4820742032142858,Ce2Co18Si8,mp-1193469
0.0,-0.7337983182758621,Eu11Zn6Sb12,mp-1193786
0.0,-0.5495257265789468,Y10Ge20Os8,mp-1195689
2.6446000000000005,-2.955947753597499,Ba4Mn8Si8O28,mp-1196057
1.3141000000000003,-1.4909979245238105,Gd8P8S32,mp-1196177
0.49760000000000004,-0.47746596773931044,Mn4Te16H72N24,mp-1196302
0.0,-0.27717256091463377,Tb10Mn13C18,mp-1197004
0.0,-2.4905205975506757,Pr4Y11S22,mp-1197117
0.0,-0.5810401534999997,Sm8Re12Si20,mp-1197504
0.0,-0.53527522475,Tb24Ga16,mp-1197692
2.8228999999999997,-1.4479315804795252,Rb4Si2S6,mp-12016
0.6303,-0.841634386465965,Cu2Ag4N8O24,mp-1202008
3.3954999999999997,-2.6545206048886505,Cs8Ca4V8O28,mp-1202328
0.0,-0.33597215950000103,Gd6Ge26Os8,mp-1202465
0.0,-0.47914425900000024,Nd24Ga16,mp-1203103
0.0,-2.4421848337467105,K6Yb2S6O24,mp-1203145
0.0,-0.5480085743750003,Zr24Ge8,mp-1203324
0.0,-0.12956803145833343,Sm3Cd33,mp-1203399
0.0,-0.21649651958333344,La8In8Cu40,mp-1203883
2.9598000000000004,-2.286587518376736,Y4Mo2Se6O24,mp-1204562
0.0,-0.2234387099056607,Yb12Al86W8,mp-1204729
0.04279999999999973,-1.2147777726470588,Tb6Os1I10,mp-1205323
0.0,-0.3516057810526308,Ce1Co12B6,mp-1205398
0.0,-0.40368762397727276,Tm4Ni2C5,mp-1205529
0.0,-0.33715826499999996,Sr2Cu2Si2,mp-1206169
0.0,-0.6037630933333329,Tb2Cu2Sn2,mp-1206421
0.0,-1.0585646749999995,Tb1Ni1As1,mp-1206716
0.0,-0.44949912499999983,Tb2Cd1Ni2,mp-1206788
0.0,-0.41718271875,Pr2Re4Si2C2,mp-1206956
0.0,-0.6435764259090914,Y6Si4Ni12,mp-1207795
0.0,-0.6477012561111124,Tm4Fe4B16,mp-1207990
0.0,-0.73598440320197,Tm3P6Pd20,mp-1208086
0.0,-0.7841294688888891,Ti6Ge6Rh6,mp-1208205
0.2391000000000001,-0.46619891840996214,Rb4Mn6Te8,mp-1209522
0.0,-0.8343029160000002,Na2La2Cu2Te8,mp-1209963
0.0,-1.4378075297904762,Na8Zr6B1Br20,mp-1210285
3.7688,-2.926726085793333,Li2Cr2Cd2F12,mp-1211098
0.0,-0.6207226161666661,Lu10In20Pd10,mp-1211130
0.0,-0.34917384557692255,La2Al20Fe4,mp-1211263
0.0,-1.27060853,La12Si4I12,mp-1211402
4.638,-2.824262428749999,Li24Sm4B12O36,mp-1211541
0.0,-0.8418814229166666,La8Al8Rh8,mp-1211543
0.0,-0.1783774670833337,La16Mg4Ni4,mp-1211561
3.4063999999999997,-2.757293339381774,K2Rb1Er1V2O8,mp-1211720
3.7099,-1.7278428075625,K4Ba8I20,mp-1211784
0.1629000000000005,-2.641084450510417,K2Ce2S4O16,mp-1211829
4.9895,-2.5254054737250002,K8Ho4Cl20,mp-1212046
3.1597999999999997,-3.555829945196112,Ho2Ti2Cl2O6,mp-1212080
0.0,-0.659387117142857,Ho4Ga18Ir6,mp-1212420
0.0,-3.328182488750002,Eu6Ta2O14,mp-1213095
0.40569999999999995,-0.40187890353448247,Cs2Ag6Te4,mp-1213692
0.0,-0.06825820999999976,Tc1Ru1,mp-1217363
0.23850000000000016,-1.2810367837499999,Tb20Te36,mp-1217665
0.0,-0.35763644076923057,Tb1Al6Cu6,mp-1217839
0.0,-2.5465070997500003,Sr2La1Fe3O9,mp-1218808
0.0,-0.43061460878787855,Sr1B4Pt6,mp-1218890
0.46750000000000025,-1.743434134352808,Rb4Cr2Br2Cl6,mp-1219758
4.2416,-3.1088248738233633,Rb2Na2Mg6Zn4Si24O60,mp-1219802
1.7351999999999999,-2.6682694152119644,Rb8V12P16O68,mp-1220097
0.0,-0.32267099216049383,Sc36In5Co13,mp-1220626
0.0,-0.3091367850000002,Li2Zn1Sn1,mp-1222600
0.0,-0.45786866625000044,La1Eu1Al4,mp-1223023
0.0,-0.7210025793181827,La6Mn1Sb15,mp-1223337
0.0,-0.9341047021428567,Ho2P7Rh12,mp-1224115
0.0,-0.6223577266666661,Gd1Zn1Si1,mp-1224549
0.0,-0.0900893036842107,Ce1Y1Co17,mp-1226612
1.718,-1.3923892004999998,Bi1Pb1I1O2,mp-1227389
0.0,-0.2691084456896554,Cs1Rb2Au7,mp-1228855
0.0,-0.2907895972135415,Ag1Sn1Se2,mp-1229011
2.2956,-1.3822490139285715,Ba8Cd8Sn8S32,mp-12306
0.0,-0.8057810549399989,Ba8Re4N12,mp-1246715
0.0,-0.7581473917708346,Ti4Ga2C2,mp-12537
0.0,-0.8817881456666669,Er4In2Pd4,mp-12689
0.9043000000000001,-0.9006974566666668,Er2Ag2Te4,mp-12902
0.0,-0.5963110816666664,Zr2Ga2Au2,mp-12951
0.0,-0.45086116777777835,Ti2Pd1,mp-13164
4.6025,-3.20736839721,Na8Li4Y4Si24O60,mp-14030
4.938400000000001,-3.705922025666333,Sr8In4F28,mp-14283
1.9818000000000002,-2.2771331437500004,Lu4Mg2S8,mp-14304
0.0,-0.2540730900000001,Li2Cd2,mp-1437
3.7032999999999996,-2.8573975135833343,Ca1Sn1B2O6,mp-14398
4.2674,-3.2458186926041677,Pr4Be4Ge2O14,mp-14415
0.0,-0.3105364676388894,Tb8C10,mp-15237
2.0443000000000007,-1.9174774408333342,Ca2Te6O16,mp-15511
0.0,-0.772414277535715,K4Sb20S32,mp-15559
1.5098999999999996,-0.9023563832019995,Mg24N16,mp-1559
0.0,-0.42494304749999934,Cr10B6,mp-15617
0.0,-1.0653858125000002,Sr10As6,mp-15698
0.0,-1.192987314603174,Sc3P3Ru3,mp-16305
0.0,-0.3173298133333328,Ba1Al9Fe2,mp-16483
2.9514,-2.455162530188699,Cs4Ti2Ge6O18,mp-16805
3.5378000000000003,-1.9927471949999997,Zn6Mo6O24,mp-16882
3.1170999999999998,-2.6207709105208337,Sr4Zn2Ge4O14,mp-17392
0.0,-2.2575866120312513,Tm1S1,mp-1766
0.0,-0.18290198000000002,Sn2Au2,mp-1775
0.0,-1.3116106117592594,Tl6Te3O18,mp-18191
1.2877999999999998,-1.5647933520312503,Sr12Ta4As12O4,mp-18199
0.0,-0.4317576588636359,Yb4Al32Co8,mp-18367
0.0,-0.4275386460606058,Yb4Al23Ni6,mp-18482
0.0,-0.5136512180952373,Mo2P4,mp-1887
0.0,-2.7234069049999996,Mg2V4O8,mp-18900
0.9367000000000005,-2.497620279345999,Ba2Mn1Te1O6,mp-18992
0.0,-2.5819226102499995,Ba2Fe1Mo1O6,mp-18995
1.2476000000000003,-2.033037280833335,W4O8,mp-19372
0.0,-3.054320014775334,Y6Mn6O18,mp-19385
0.0,-1.2139652107812502,Nb2Pb2S4,mp-19746
0.0,-0.07655909999999959,Pb2Au4,mp-19871
0.0,-0.8771864774999992,Ce4Ge4Ir4,mp-20022
0.0,-1.6132748210714283,Dy1P1,mp-2014
0.0,-0.49330017166666673,Li1In2Pt1,mp-20265
0.0,-0.6277027175000001,Gd2Ga2,mp-20353
0.0,-0.820528318666667,Sr4In2Pt4,mp-20393
0.0,-0.23352827500000067,V4Ga10,mp-20405
0.0,-0.6662460816666669,Sr2In4Pt2,mp-20533
0.0,-0.48068188499999964,Tb1Hg1,mp-2054
0.0,-0.5900051826666661,Yb4In2Ge4,mp-20591
0.0,-0.5044550262499996,Sb4Rh4,mp-20619
0.0,-0.2512461381444991,Rb2In4Au8,mp-20804
0.0,-0.330439159722222,Ca2In8Ir2,mp-20838
0.0,-1.2068982045312495,Ta2Pb2S4,mp-20985
2.2279000000000004,-1.5138748045833335,Te8O16,mp-2125
0.0,-0.8041260573684212,Ho10Ge20Rh8,mp-21816
0.0,-0.3078468807692299,Zr1Mn6Ge6,mp-22084
0.0,-0.2723194900000001,Mn4As4,mp-22240
0.0,-0.9984231366666663,Dy3In3Pt3,mp-22384
0.0,-0.16182443175000003,Al1Fe3C1,mp-22793
1.8896000000000002,-2.0047714990033327,Cr2Cl2O2,mp-22946
0.0,-0.4373496062500002,Sr1Bi3,mp-23159