band_gap,formation_energy_per_atom,full_formula,task_id
0.0,-0.16714189999999896,Mn1V1Ru2,mp-864983
0.0,-0.4292030887499996,Dy2Al6,mp-864995
0.0,-0.3787220514285719,Lu4Ni20Sn4,mp-865201
0.0,-0.7810913724999997,V2Br6,mp-865473
0.0,-0.3164533975000001,Y2Cu1Ru1,mp-865588
0.0,-0.5382984387499992,Y2Ga6,mp-865598
0.0,-0.6356211133333334,Yb1In1Rh2,mp-865774
0.0,-0.8761264324999996,Li1Zr1Pt2,mp-865866
0.0,-0.45180877166666633,Ti1V1Tc2,mp-865914
0.0,-0.4447528637499998,Ca1Ce1Hg2,mp-866040
0.0,-0.7957173375000002,Y1Ga1Rh2,mp-866156
0.0,-0.6896238475,Y1Mg1Rh2,mp-866165
0.0,-0.3097402089583339,Ti2Zn1Re1,mp-866183
0.0,-0.27551507093749983,Sr4Sn12Sb16,mp-866805
0.0,-0.2764135350000001,Li1Cd2Rh1,mp-867115
0.0,-0.5394867849999994,Li1Tm2Rh1,mp-867162
0.0,-0.5462883175000002,Ca1Pr1Hg2,mp-867217
0.0,-0.2603491612500006,Li1Ho2Os1,mp-867269
0.0,-0.5907065283333339,Li1In1Pd2,mp-867926
0.0,-0.8493549085000012,Er4Si10Ru6,mp-8808
0.0,-0.57417621465625,Cr4Ga4Se12,mp-8829
0.0,-0.5947697946424997,Ba4Li2Fe4N6,mp-8924
0.0,-0.9057364223809531,Ba4P4Ir4,mp-9078
0.0,-0.5522943957142853,Y2Al3Si2,mp-9177
0.0,-0.4929614387500001,Sc1Ga3,mp-932
0.0,-1.7609197486979173,Li1Ti1S2,mp-9615
0.0,-0.6937674493749997,Sm1Sn1Au2,mp-972526
1.8007,-0.9236850789664155,Rb4Nb2Ag2Se8,mp-9764
0.0,-0.5981606074999988,Mg1Mn1Pt2,mp-976406
0.0,-0.4739120425000003,Li1Nb1Ir2,mp-977563
0.0,-0.41215366916666696,Tm2Ag1Hg1,mp-979176
0.0,-0.3377599720833331,Y1Ho1Ag2,mp-979425
0.0,-0.8606677383333334,Ca9Pt6,mp-984698
0.0,-0.2610917493749998,Tb1Fe1C2,mp-999122
0.0,-0.3679654162499997,Sm2Ni2,mp-999145
0.0,-0.28691340687500055,Lu1Fe1C2,mp-1001606
0.6925999999999997,-0.18237198249999942,Be2Sn2As4,mp-1009084
0.0,-0.5636250683333337,Dy2Zn2Ga2,mp-1018682
0.0,-0.5530440566666665,Eu2Cd2Sn2,mp-1018697
0.0,-0.6457608083333332,Ho2Fe2Si2,mp-1018725
0.0,-0.2890950083333337,Mg2Co2Ge2,mp-1018808
0.0,-0.6253609933928571,Y2Re2Si2C1,mp-1025205
0.0,-0.54944806244898,Sn1P1Pd5,mp-1025296
0.0,-0.46886584428571404,Y1Ga5Co1,mp-1025375
0.0,-0.4288865349999984,Sc3Ni1C4,mp-1025464
0.0,-0.8434111906628569,Sr6Re2N6,mp-1029531
0.0,-1.0208316283333332,Ce1Ni1As1,mp-1061766
0.0,-0.397966380833334,Ti2Ni2,mp-1067248
0.0,-0.5542521786666669,Tm2In1Ni2,mp-1068283
0.0,-0.7335711010000011,Eu1Si3Ir1,mp-1069707
0.0,-0.14962115277777777,Zr1Cu4Ag1,mp-1070869
0.0,-0.7377814933333333,La4Bi2,mp-1077063
0.0,-0.2692548923214296,Gd2Cr2C3,mp-1078248
0.0,-0.714216460555555,Er3Co2Ge4,mp-1078499
0.0,-0.8044805695000001,La2As4Ir4,mp-1078889
0.0,-0.427255723333334,Tm2Ni1Sn6,mp-1079270
0.0,-0.5382082216666669,Sm2Mn1Ga6,mp-1079654
0.0,-0.5025227062499997,Zr2Au6,mp-1079681
0.0,-2.5650658216070363,Sr2Ti2As2O1F2,mp-1079747
0.0,-0.38792644866666637,Tb4In2Cu4,mp-1079779
0.0,-1.1344070083571431,La2P4Rh4,mp-1080183
0.0,-0.39752405066666585,Lu4In2Cu4,mp-1080814
0.0,-0.07527964166666597,La4Os8,mp-1102043
0.0,-0.7559135616666678,Zr4Fe4Si4,mp-1102452
0.0,-0.6065046941666665,Ca4Cd4Pd4,mp-1103172
0.0,-0.6359775875000006,Dy8Au4,mp-1103411
0.0,-1.0116751475,Ce4Ga4Pt4,mp-1103487
0.0,-0.7509717763636364,Ce1Ge4Rh6,mp-1103596
0.4964000000000004,-0.48006832971428637,K2Te6Mo6,mp-1103956
0.0,-1.819574582837916,Ce8Se6N4,mp-1105809
0.0,-2.6706756185959994,Ca4Mn2Re2O12,mp-1106155
0.0,-0.24886888333333346,Ce2Co4,mp-1112
2.7018999999999997,-2.628066828455379,Cs2Tl1As1F6,mp-1112503
0.0,-2.5342684137553797,Cs2K1Pd1F6,mp-1113037
0.0,-0.3493377616666666,Sc4Al2,mp-11220
0.0,-0.4938470549999998,Hf4Ga6,mp-11441
0.0,-0.3299098107142854,Mo2P8,mp-11508
0.0,-0.7266119700000004,Li1Al2Ir1,mp-11512
0.0,-0.5342247825000008,Zr1Os1,mp-11541
0.0,-0.14475464166666777,Ta2Sb4,mp-11697
0.0,-1.0608653175231484,Ti5Se4,mp-11765
0.0,-0.5175123424999999,Gd2Ir1Ru1,mp-1184393
0.0,-0.37590577250000035,Ho2Al1Ru1,mp-1184583
0.27990000000000004,-0.021706014499999923,Ho1Mg149,mp-1185534
0.10950000000000015,-0.00782612833333322,Mg149Mn1,mp-1185627
0.0,-0.6677908712500003,Pm2Ni1Pt1,mp-1186482
0.0,-0.206460736875,Pm2Ag6,mp-1186539
0.0,-0.31303906999999986,Pm1Sm1Zn2,mp-1186648
2.6452999999999998,-1.963667824349231,V1H6O3F3,mp-1187773
0.0,-0.003134286249999896,Y2Ho6,mp-1187851
0.0,-0.5099691418750005,Pr10Pb6,mp-1188302
0.0,-0.6646402705555547,Nb6Si6Ru6,mp-1188541
0.0,-0.5067851063888895,Nb6Re6Si6,mp-1189470
2.9153,-2.4428484286011916,Lu2Co1Te2S2O14,mp-1190475
3.7978999999999994,-2.6894436425,Li2Lu2W4O16,mp-1190882
0.0,-0.6599270362499988,Ce12Ni4Ge8,mp-1191014
0.0,-0.7992748269047625,Dy2Co12P7,mp-1191588
1.6471,-2.227307275270595,Cs4Cd4B4O12,mp-1191636
0.0,-0.6537722281944447,Lu4B16Ru4,mp-1191771
0.0,-0.49519913227272705,Eu2Ge14Rh6,mp-1191926
1.6021,-0.23460550313701953,Ir2Se6Br18,mp-1192469
0.7829000000000002,-2.6391114986160713,La4S4O20,mp-1193569
0.0,-0.5784081974828571,V16Co8N4,mp-1194044
0.0,-0.6600840942105262,Dy6Al24Ru8,mp-1195540
0.0,-2.0665347617763157,Ho18Sb10C2O8,mp-1195820
1.9814,-2.817249416857241,V8Pb6O6F38,mp-1196298
0.0,-2.5295017272804055,La4Dy11S22,mp-1197619
0.0,-0.2766695989743587,Tm3Fe18Ge18,mp-1197758
3.4083000000000006,-2.8544983388329994,Cr4Pb8F28,mp-1197980
0.0,-0.974271309423077,Ce12Al24Pt16,mp-1199697
0.0,-0.5946134911904762,Ho22In12Si8,mp-1199978
0.0,-0.22346145405797094,Yb2Ti4Al40,mp-1200740
3.7016999999999998,-2.174367930598958,Ba4Se4O16,mp-12010
1.3230999999999997,-1.5178794208534492,Cs20Fe4O16,mp-1201412
0.21319999999999983,-1.370638706416667,K1Ag2As1O4,mp-12015
3.6281999999999996,-2.3644033014374997,Na8Mo4H8O12F16,mp-1201525
0.21079999999999988,-1.4813032040625003,Pr14C6Br20,mp-1202671
0.0,-0.10694145284210534,K6Cd32,mp-1202778
0.21809999999999974,-2.2377023272893335,Sc40Ir8Cl72,mp-1203297
2.4297000000000004,-1.622759897433712,V4Pb8Se12O42,mp-1203641
3.3421000000000003,-2.3283305582230196,Cs2Mn2Ga4P6H8O28,mp-1204881
0.0,-0.6811183351785729,Ho2P2Ru4C2,mp-1205704
0.0,-0.7317737427777773,Er3Al3Co1Ge2,mp-1205920
0.0,-3.0877692102499994,Ba2Dy1Mo1O6,mp-1206026
0.0,-0.44181077974999994,Ce2Re4Si2C2,mp-1206583
0.0,-0.489901149448,Ba1Ga2H2,mp-1206799
0.0,-0.6761580168888893,Y10Si4B16,mp-1207750
0.0,-0.37014125791666785,Y16Mg4Pd4,mp-1207787
0.0,-0.21654576833333353,Tm16Mg4Ni4,mp-1208029
3.8583000000000003,-1.9586336340625006,Tl8Fe8S12O48,mp-1208266
0.0,-0.47630163791666646,Sm16Cd4Ir4,mp-1208937
0.0,-0.4528516365384613,Pr2Al20Os4,mp-1209309
1.2383000000000006,-3.215585689250001,Pr4V4O12,mp-1209329
0.0,-0.7949708294827585,Pr3Si6Pd20,mp-1209429
0.0,-0.4234248558333338,Pr16Cd4Ir4,mp-1209709
0.0,-1.4604221880937498,Na1Er1Pd6O8,mp-1210087
5.668900000000001,-3.3712896506200005,Mg8Be12Tl8F48,mp-1210925
0.0,-0.7355548687192118,Lu3P6Pd20,mp-1210990
3.7781999999999996,-2.685324470833333,Li2Tm2W4O16,mp-1210997
0.0,-0.3181920385220125,Lu12Ti8Al86,mp-1211304
0.0,-1.0150071299999996,La4Sb4Rh4,mp-1211458
0.0,-0.5340719839285717,La4Ga18Ru6,mp-1211948
0.0,-0.23644719403508735,Hf12Be102,mp-1212567
0.0,-0.8745009983333331,Er8Si12Pd4,mp-1212897
3.7030999999999996,-2.738073299979064,Cs2K4La2V4O16,mp-1213137
1.7671000000000001,-2.5860038604319056,Ba10Mn6O24F2,mp-1214575
0.0,-1.730275532975833,Ag2Rh2F12,mp-1214934
0.0,-0.8441592861111111,Zr1Nb1B4,mp-1215211
0.0,-0.30327348666666626,Zr2Fe1Co3,mp-1215554
0.0,-0.2042444941666671,Zr3Mn8Al1,mp-1215704
0.0,-0.6453518268035054,Zn3P6N12Cl1,mp-1215763
0.0,-0.27306930708333255,Ti4Nb2Al2,mp-1217093
0.0,-0.6620404584374997,Ti3Nb1Al2C2,mp-1217102
0.0,-0.7740372451111114,Ti8Al15Rh7,mp-1217136
0.6497000000000002,-0.007562180963541702,Te3Se3,mp-1217322
0.0,-0.08874231000000066,Ta1Mo1,mp-1217895
4.421200000000001,-3.7487018942261905,Sr2La8Si6O26,mp-1218249
0.0,-2.205908583249999,Sr2Co1Ru1O6,mp-1218846
0.0,-0.49408413583333344,Sm4Ga7Ag5,mp-1219151
3.6449999999999996,-2.117137721631578,K8Zn8Mo12O48,mp-12194
0.0,-0.7436066050595243,Mn1Ag2Sn3S8,mp-1221783
2.9294000000000002,-3.678754254074074,La4Ta4Ti4O24,mp-1222878
0.0,-0.4667824529166668,La1Al1Ni4,mp-1222929
0.0,-0.5619784497499992,La1Ce1Mn4Si4,mp-1222964
0.0,-0.8450457174999997,La2Ge4Ir1Pd3,mp-1223521
4.8766,-3.2230639864999997,K4Mg10Si24O60,mp-1224161
0.0,-0.4232121145833337,Hf4Ge1Sb7,mp-1224386
0.0,-0.3269470441666667,Hf4Al4Mo4,mp-1224402
3.0683999999999996,-2.778866854300766,Cs2Ta2W2O12,mp-1225854
0.9590000000000001,-0.8159440986335786,Ba4Ag16S14,mp-1228614
0.035600000000000076,-0.2025749732142858,Ca12Cd72,mp-1229298
0.0,-0.4835973866666663,Lu2Al4,mp-1234
1.7915000000000005,-1.2541182560818178,Ca20V4N20,mp-1247440
0.0,-0.4185339550000009,Sr2Ni4Ge2,mp-12520
0.0,-0.7364065769999997,Dy6Pd4,mp-12543
0.0,-2.4782020272500005,Sr1Tc1O3,mp-12631
4.4234,-4.04477503225,Ho6Sc2O12,mp-13840
0.0,-0.22025831499999993,Mg1Hg1,mp-1408
0.0,-0.40129232644736884,La2Ni24B12,mp-14325
0.0,0.0,Lu2,mp-145
0.0,-0.21800705230769232,Ba1Cu8As4,mp-14786
0.0,-0.7921529248529415,Co9S8,mp-1513
0.0,-0.3864791737962968,Nd2B8Os8,mp-15323
0.0,-0.06925183538461582,Be12Cr1,mp-1590
0.0,-0.5956248590126049,Nd1Fe4P12,mp-16431
0.0,-1.8403808717968753,Pr1Se1,mp-1674
2.0731,-1.800169016678572,K4Ba4Nb4S16,mp-16780
0.03869999999999996,-0.6646085624999998,Yb8Ge4,mp-1694
0.0,-0.7868445687499985,Ti6Rh10,mp-17413
1.2098,-0.49567134271428615,Na16Al16As24,mp-17473
6.956099999999999,-4.317834280707143,K2Tb6F20,mp-17838
0.0,-1.1879242474999998,Pr1Sb1,mp-1785
3.7263,-3.2512183272222237,Nd8W4O24,mp-18057
0.13680000000000003,-0.9672518970588233,Lu4Ge6Rh7,mp-18222
0.0,-0.23547048166666684,Ta4Ni2,mp-1867
2.2208,-1.515442080361149,Cs4Mn4O16,mp-18994
1.9441000000000002,-1.9338027679999996,Na1Fe1O2,mp-19359
2.4612,-2.605567741468253,Cr6P6O24,mp-19401
1.9682999999999997,-2.80172883732143,Sr16Cr8O32,mp-19514
3.2142,-2.1832344379772732,Na8Mo8O28,mp-19760
0.0,-0.8086611533333333,Dy8Ti12Si16,mp-19950
0.0,-0.4056125650000002,Y1In3,mp-20131
0.0,-0.1481359160000002,Na2Cd1Pb1,mp-20389
0.0,-0.5243301127777779,Sm4Fe4B16,mp-20416
0.0,-0.41266976874999983,Mn1Sn1Pd2,mp-20481
0.0,-0.6080786910416673,Sm2In4Rh2,mp-20666
0.0,-0.745699335,Ce2Si2Ni2,mp-20710
0.0,-1.9802735942500007,Eu4Ni4O12,mp-20718
0.0,-0.3462644810416666,Ti10Sn6,mp-20847
0.0,-0.3795081962499989,Hf10Sn6,mp-21104
0.0,-0.6528493999999997,Tb4Co4Ge4,mp-21144
0.0,-0.5835240849999993,Y2Mn2Si2,mp-21249
0.0,-0.37107996416666705,Sb4Rh8,mp-21359
0.04679999999999929,-0.35875577379310397,Tm2Ni21B6,mp-21608
1.4203999999999999,-2.8183564092500006,Ba2Ce1Pt1O6,mp-21879
0.0,-0.6943736672222217,Ho2Ti2Ge2,mp-22108
0.0,-0.504608484545454,Sr3Sn4Ir4,mp-22418
0.0,-2.83047073825,Ba4Lu2Ir2O12,mp-22594
0.0,-0.6353159114583349,Ta4Ni4B8,mp-22709
1.6382999999999999,-0.8017702602011489,Cs2Cu4Br6,mp-23017
1.9923,-1.5643025957083339,Cr4Ag1Bi1O14,mp-23565
0.0,-0.9553238725000002,Er1Rh1,mp-2381
0.0,-1.4099656290712492,Ce2H2Se2,mp-24011
3.3035,-1.748566614978974,Be4Co2H40N4O12F16,mp-24347
3.539,-1.0792861510155554,Cd4H16N4Cl12,mp-24356
0.0,-0.1923998590800006,Ta1H2,mp-24723
0.0,-1.5479757549399995,Nd1N1,mp-2599
3.045,-2.6810848235714273,Li6Cr4P6O24,mp-26971
0.019099999999999895,-0.06577557166666637,Sr1Cu5,mp-2726
1.8203999999999998,-0.5283376484821432,Si4Pb8Se16,mp-27532
0.0,-0.6340147241457682,Rb18O4,mp-27561
2.1471,-2.189993836324036,Rb2Ti1Cl6,mp-27827
0.0,-1.346796446289063,Ta4Ni2S10,mp-28308
1.4082999999999999,-1.7227021906666664,K4Zn6O8,mp-28371
3.9009,-1.5448406301253919,Rb8Pb2Br12,mp-28564
3.4829999999999997,-1.1240159957499998,Na4Ga4Br16,mp-28679
0.855,-0.25520274500000006,Te8Mo2Br2,mp-29190
2.1879999999999997,-1.3028695431411113,Ca24Al16N32,mp-29820
4.4001,-1.8885579005641382,Rb4Ga4Cl16,mp-30231
0.0,-0.3091622254166664,Sc1In1Ag2,mp-30347
0.0,-0.2089040139473685,Tm2Zn17,mp-30714
0.0,-0.6316333274999995,Li1Al2Pd1,mp-30817
0.0,-0.43274124159090893,Er4Ni28B12,mp-31130
0.0,-0.6793946421875008,Dy20Bi12,mp-31464
1.5829999999999997,-3.0681986484999997,Ba8Nb4Cr4O24,mp-31627
1.1602999999999999,-2.2047362057142865,Mg4Pt2O8,mp-33940
0.0,-0.7069719268333344,Nd1B1Rh3,mp-3591
0.0,-0.8032081302380943,Ho2Co12P7,mp-3706
0.0,-0.4095791405555558,Er3In3Cu3,mp-3950
0.0,-1.0897345683333335,Yb2Pt4,mp-410
0.0,-0.4214571917499995,Y3Al1C1,mp-4448
2.7156000000000002,-2.906217129999999,Ca4Sn2O8,mp-4747
0.0,-0.7481349766666661,Gd2Sc2Ge2,mp-4796
0.0,-2.7092069248706903,La4Re6O19,mp-4802
0.07509999999999994,-0.09694249749999972,Cd2Ge2As4,mp-4953
0.0,-2.805240305205,Na1Mo1F6,mp-504778
0.0022999999999999687,-2.7211405748717166,Cs2V4P10O32,mp-504996
0.0007999999999999119,-3.9603762040322588,Ce11O20,mp-505619
0.13430000000000053,-0.26388882599999947,Ge14Ir6,mp-505780
2.0557999999999996,-2.461698478129974,Rb4V6O16,mp-510519
0.0,-0.635494955905,Nd4Ni4Sn4H4,mp-510580
2.8213,-0.46202078370159305,Na24B40Se72,mp-531600
0.0,-0.4625625136666675,Ba2Ni18As10,mp-540991
1.2714999999999999,-2.1580097296875005,Ce4Se8O24,mp-541090
2.2439000000000004,-2.1940349035466666,Hf2N2Cl2,mp-541911
3.7170000000000005,-3.112174355476468,Rb4Nb2Si8O23,mp-542121
3.1907,-2.4150623881519997,Ba2Bi2Cl2O4,mp-552806
2.6864999999999997,-2.7851326912067096,Si4Mo2P4O23,mp-553934
0.0,-2.483275245314406,Rb2Ir1F6,mp-554337
4.5798,-2.538494459193864,K8Sb4S4O16F12,mp-554643
0.6949999999999998,-2.3968946813704357,Ba6Ru2Pt1Cl2O12,mp-554949
1.8941000000000003,-0.9950458226562509,Ta2Tl3Cu3S8,mp-554994
1.0434999999999999,-2.710029909440953,Sr10Cr6Cl2O24,mp-555204
2.3013000000000003,-2.856324470662879,Ba13Dy8Zn4Pt4O37,mp-555356
3.1953,-2.617291118014695,K4Mn4P4O16,mp-555605
0.48930000000000007,-0.8390846202777777,Cu2I4O12,mp-556582
3.7179999999999995,-3.308801927407407,Ca16Al24Mo4O64,mp-556889
3.566,-2.933725746071429,Sr16Ge8O32,mp-557311
2.0972999999999997,-2.8705960814795914,Ba1V2P4O14,mp-557348
1.9407999999999999,-2.65726892540619,Ba4In2Cl2O6,mp-558243
2.2474000000000003,-1.9434028545733337,Fe4Te4O12F4,mp-558502
1.417,-2.3233111846425,Cr1Hg1F6,mp-558864
1.7254999999999998,-1.863015376444444,K2Li6Pb2O8,mp-559106
4.2168,-3.3151294552308332,Sr12Al8Cl8O20,mp-559224
2.4773,-3.5399865681249993,Ba14Sc12Al4O38,mp-559325
4.678100000000001,-3.6507914854086674,Ca16Si8O28F8,mp-560163
4.3605,-2.7153073103609913,Cs4La4S8O32,mp-560260
1.5806,-1.850678781088817,K8Y16Sn8S44,mp-560785
3.9070000000000005,-2.609190662913715,Mg20Ge6H8O36,mp-560872
1.3951000000000002,-1.6201146549697583,Ba32Sb24S68,mp-561455
0.7564,-2.2687572469553796,Cs1Hg1F3,mp-561947
2.4337999999999997,-1.4314028916370845,Co10Te8Cl8O22,mp-562327
1.3907,-1.373755088913691,Ag4S2O8,mp-5625
0.0,-1.0510218014999992,Nd1Si2Ir2,mp-567130
3.2150999999999996,-1.3159658339359992,Sr1Si6N8,mp-567278
0.0,-0.8809598960000002,Yb1Ge2Rh2,mp-567427
0.0,-0.516288051153846,Gd2Al18Ni6,mp-568693
0.0,-0.07140846897569493,Ag8Se4,mp-568936
2.2911,-1.2176676442911873,Cs6Mn2I10,mp-569118
0.0,-0.35868710166666656,Yb8Tl4,mp-569605
0.7223999999999999,-0.08441186624999997,Te4I4,mp-569766
1.3236,-1.0738467084023213,Nb8P16Se16Cl40,mp-570486
0.0,-0.8300789727777781,Ca4In4Pt4,mp-570689
0.0,-0.773605406666667,Ba3Cd2Sb4,mp-571069
0.0,-0.7285374834999991,Nd1Co2As2,mp-571382
0.0,-0.37367185,Nb4Co4Te8,mp-571471
0.0,-1.613020795428571,La2P1I2,mp-571647
1.7740000000000002,-0.9918930116379313,Cs8Te4,mp-573763
0.0,-1.0836989119999998,Tb1Si2Ir2,mp-5752
0.0,-0.4256959700000005,Al1V1Fe2,mp-5778
4.337199999999999,-2.728114918604912,Si4Mo4P12O44,mp-581326
0.0,-0.5111857933333326,Li2Eu4Si6,mp-581678
0.0,-0.7503199401587308,Eu2Ni10P6,mp-582367
2.2821999999999996,-1.471973588734844,Rb12Er12P16S64,mp-583084
0.0,-0.18638357549999968,Nd8Mo4C8,mp-603912
1.8538000000000006,-1.6550674586607133,Fe8Te12O36,mp-605856
0.0,-0.7573575132051278,Yb10In4Sb12,mp-628593
0.0,-0.1756846599019602,Ti16Bi18,mp-640045
0.0,-0.5964913674507846,Sr19In8N7,mp-641775
0.0,-2.045841590859091,Zr6Ni1Cl15,mp-653981
0.0,-2.88969556375,Sr4Ho2Ru2O12,mp-6676
0.0,-0.5786948676388887,Y16In4Ir4,mp-672679
0.0,-1.2138836611562496,Ba2V2Se6,mp-676597
0.0,-2.4577318294425683,Ce4Lu11S22,mp-680039
1.1315999999999997,-2.7549955744700005,Sr8Cr4Cl4O16,mp-693892
5.093300000000001,-3.6114934538541674,Ho4Be4Si2O14,mp-7013
0.0,-0.34991066249999925,Cr6Si2,mp-729
0.4468000000000001,-0.40124184266666685,K2Zn2Sb2,mp-7438
0.0,-3.002019359500001,Tb2Sb1O2,mp-755713
0.0,-2.233892600176471,K3W12O36,mp-757494
1.4706000000000001,-0.7965278927083345,Pt1S2,mp-762
1.7890000000000001,-1.7965168498684205,Li8Cr12Co8O48,mp-772115
0.0,-2.4055456051315787,Li2Nb16O20,mp-772215
1.3376000000000001,-2.9881626926041664,Pr4S4O4,mp-774472
3.2958999999999996,-3.9213470491145834,Er8Ti4O20,mp-774567
0.0,-0.6798548066666671,Y2Si2Cu2,mp-8126
0.0,-0.7967601608571429,Ba1P2Pd2,mp-8236
3.9882,-3.1083370163749997,K1Y1O2,mp-8409
0.0,-0.6035650862500002,Pr2Sn1Hg1,mp-861510
0.0,-0.4432498916666668,Ca4Mg4Pb4,mp-861738
0.0,-0.508835928333335,Ti2Co1Tc1,mp-862911
0.0,-0.5921260954999998,Na1Pm1Au2,mp-862942
0.0,-0.42856918499999974,Pm2Cu1Sn1,mp-863676
0.0,-0.9094857850000002,Ho2Ir1Rh1,mp-864625
0.0,-0.03140317375000001,Mg6Tl2,mp-864938
0.0,-0.5126291075000005,Hf1Ta1Tc2,mp-865038
0.0,-1.2550476562453847,Ba10Cd4Sb10F2,mp-865528
0.0,-0.343253745416666,Ti1Re2W1,mp-865664
0.0,-0.12702420499999967,Ga1Tc2W1,mp-865746
0.0,-0.6362485475000002,Li1Zr1Rh2,mp-865868
5.3739,-2.274936121933717,Cs2Mg1P4H8O16,mp-866620
0.0,-0.316440665,Li1Dy1Tl2,mp-867108
0.0,-0.6549066612499992,Ce1Sn1Au2,mp-867310
0.0,-0.7164722075396823,Ti2Co12P7,mp-867373
0.0,-0.2780466252083338,La1Tl1Ag2,mp-867817
0.0,-0.7851602287500006,Dy2Co2Si4,mp-8742
2.2840000000000003,-0.9904867548333337,Na4Li4Te4,mp-8754
0.0,-2.3006511710416677,Ba2Cu1O3,mp-8790
0.0,-0.6448544580519472,Li1Co6P4,mp-8864
0.0,-0.6694961958924992,Sr4Li2Fe4N6,mp-8923
0.0,-0.3300569207142858,Nb2Ni2Te10,mp-8999
0.0,-0.7957866666666654,Sc3Ge3Ru3,mp-9223
0.0,-0.7994643515476191,La2Co10P6,mp-9552
0.0,-0.5670761838888888,Li12Sb6,mp-9563
0.0,-0.5059190733333333,Pr2Al8Co2,mp-975726
0.0,-0.3462491399999994,Ta2Tc1Mo1,mp-977363
0.0,-0.33409226000000025,Mg1Rh2Pb1,mp-977571
0.4521999999999995,-0.48813758590499967,Sr1Ga1Sn1H1,mp-978852
4.130599999999999,-2.895117676232965,Rb2Na1Sb1F6,mp-989541
0.0,-0.3174925061111114,Mn3Nb3Ge3,mp-9951
3.7460000000000004,-3.2159225483925002,Mg1W1F6,mvc-15861
0.0,-1.8255401531562514,Na1Eu1S2,mp-1007910
0.0,-0.49495421990740834,Y4B16Ru16,mp-10138
0.0,-0.42442811555555576,Ti1Au2,mp-1018123
0.0,-0.3157032802777782,Ti2Re1,mp-1018125
0.0,-1.62361170494,Pm1N1,mp-1018160
0.0,-0.6482081506944439,La1Al2B1Ru2,mp-1018738
5.3095,-2.997807953204365,Li4Mg12P12O44,mp-1020109
4.3588000000000005,-2.70218636017176,Rb5Li6B11O22,mp-1020620
0.0,-0.3899752742857144,Te4Rh3,mp-1025159
0.0,-2.4955795938819705,Cs2Cu1F4,mp-1025265
0.0,-0.5159840433333339,Zr1Ti2Ga4,mp-1025304
0.0,-0.6990109483928576,Ho2Fe2Si2C1,mp-1025316
0.0,-0.48436673750000026,Ce1Pd7,mp-1025415
0.0,-0.618931514821428,Co2Mo2P4,mp-1025557
0.0,-0.690986066,Y2Si6Ni2,mp-10284
0.0,-0.20540758785666569,Mn2Zn4N6,mp-1029354
0.0,-0.5237331157499995,Lu3Tl1C1,mp-10607
0.0,-0.6635432049999999,Ca2Cd1Pd2,mp-1068286
0.0,-0.5873398640000005,Tm2Al1Ni2,mp-1069611
0.0,-0.6128116575,Tb1Si1Ni4,mp-1070859
0.0,-0.813473755555556,Ce1In1Pt4,mp-1071478
0.0,-2.7281162204166662,Eu4Cr4O10,mp-1076286
0.0,-0.33766878333333294,Yb3Al3Cu3,mp-1078543
0.0,-0.4617503588888891,Y3Al3Cu3,mp-1079361
0.0,-0.9444767612499998,Ce2Si4Ir2,mp-1079402
0.0,-0.8173622616666669,Tb4In2Au4,mp-1079501
0.8394999999999999,-0.9847522730989583,Hg2Se2O8,mp-10796
0.0,-0.7955435487499996,Er2Ga4Pd2,mp-1079745
0.0,-0.5685215816666663,Lu3Si3Ag3,mp-1079794
0.0,-0.2773213799999997,Hf3Sn6,mp-1079810
0.0,-0.5612455355555552,Sc3Ag3Ge3,mp-1080424
0.0,-0.5789512699999996,Eu2Bi4Pd4,mp-1080767
1.8395000000000001,-1.9445553805681812,Dy4Te3S4,mp-1095296
0.0,-0.9877846733333335,Zr4Ge4Pt4,mp-1095610
0.0,-0.6838873766666668,Tm4Co4Ge4,mp-1101079
0.0,-1.0583498441666659,Y4Si4Ir4,mp-1102268
0.0,-0.7336108883333333,Yb4Sb4Ir4,mp-1102313
0.5951999999999993,-0.23461083619791742,Bi4Ir4Se4,mp-1103228
0.0,-0.22295907107142807,Nd10Ru4,mp-1103979
0.0,-1.2616963193333333,Nd1Mo6S8,mp-1103989
0.0,-0.38494054208333317,Yb4B8Os4,mp-1105649
0.0,-0.42094140383333356,Mg4B4As2Ir10,mp-1105793
0.0,-0.6488825266666671,Ti4Pd12,mp-1105911
0.0,-1.16493769675,Er7Fe1I12,mp-1106187
0.0,-0.9673067222222227,Lu6Ge6Pd6,mp-1106214
0.0,-0.5449460450000005,Eu1Hg1,mp-11375
0.0,-0.38278411250000044,Hf1Ga3,mp-11387
0.0,-0.29263299583333335,Gd1Mg1Ag2,mp-1184490
0.0,-0.800620135,Ho2Ru1Pt1,mp-1184663
0.0,-0.0038673850000003895,Ho2Tm6,mp-1184899
0.0,0.0,K20,mp-1184905