band_gap,formation_energy_per_atom,full_formula,task_id
0.0,-0.3119106866666665,Cu1Br2,mp-23219
4.6762999999999995,-2.7977884315174997,Bi4F12,mp-23237
0.0,-0.6627908899999997,Ca2Ge2,mp-2360
0.0,-0.5342866500000003,Sn4Pd4,mp-2369
0.0,-0.40057313249999993,Sb12Rh4,mp-2395
5.2797,-2.2444828104043353,Al4B4P8H20N4O36,mp-24757
7.4597999999999995,-3.1251063493750006,Be2O2,mp-2542
0.0,-1.8140584192968747,Ce1Se1,mp-2563
0.0,-0.2141014066666672,Mg8Ni16,mp-2675
1.4392,-1.3048493147566667,K4Au4Cl16,mp-27181
0.8377,-1.37157948586532,Rb6Au6Cl16,mp-27301
0.0,-0.6097904058333334,Sc4Co6Si2,mp-27319
0.0,-1.4917048010249658,Rb2Co2Cl6,mp-27707
0.0,-0.346378993333333,Tm1Ag1,mp-2796
4.5889999999999995,-1.4779321578372417,Cs4H28O16,mp-28204
4.768000000000001,-0.38617158782399946,Ge2H6Cl2,mp-28369
0.9487000000000001,-0.3241382374687505,K16Ga16Sb32,mp-29383
1.8951000000000002,-0.06153026238095194,P2I4,mp-29443
0.0,-0.4127838587499994,Ho3Al1C1,mp-29677
3.5509999999999997,-1.406577239608,Sn4Cl16,mp-29866
0.0,-0.290980253,Ca1Al2Zn2,mp-30175
0.04789999999999983,-3.296063081704546,Pr12Mo4O28,mp-30215
2.4703999999999997,-1.7769447030357146,Sr4Sn2S8,mp-30294
0.0,-0.15981326416666639,Al10W2,mp-30337
0.0,-0.2010289858333333,Mg8Hg4,mp-30719
0.0,-0.616788066060606,Ho6Cr2B14,mp-31046
1.5602,-1.8215082770312505,Dy1Tl1S2,mp-31166
0.0,-0.2677561400000001,Sm4Tl2,mp-319
0.0,-0.08244637833333357,Rh2Pb4,mp-321
0.0,-1.6622562575416673,Na4Ru2O6,mp-37255
0.0,-1.4258500846875013,Zr2Si2S2,mp-3938
0.0,-1.8852385764375001,Ba2Ta2S6,mp-4001
0.0,-0.8886925515000001,Nd1Si2Ru2,mp-4013
1.7941000000000003,-0.9701546823437508,Tl8Ga8S16,mp-4016
0.0,-0.9439566954999996,Nd1Si2Pd2,mp-4323
3.6241,-3.6840388142500005,Sr4Zr4O12,mp-4387
0.0,-0.41832137402777764,La2Ni8B2,mp-4634
0.0,-2.378628877142858,Sr8Ir4O16,mp-4998
0.48900000000000077,-1.8993090747712493,Mn8Bi4O20,mp-504697
0.0,-0.5065244521659484,Cu12As4S13,mp-504753
0.0,-1.1082339873329747,Cs2Fe2S4,mp-505632
0.0,-0.8823303550000013,Zr8Si16Ru12,mp-510274
0.0,-0.7001603043750002,Er20Co4Sb8,mp-510595
1.4927000000000001,-0.9855710662913078,Cs4Ag2Sb2S8,mp-510710
2.3712999999999997,-0.8852521377727275,K8Mo24Br56,mp-531064
1.4382000000000001,-0.2685034455208335,Ge16Se32,mp-540625
0.0,-0.41153114777777766,Ti2Cu4Te6,mp-541754
0.0,-0.6336173349999994,Yb2Cu2As4,mp-542132
0.0,-1.0329291200347228,Tl2Cr6S10,mp-542443
0.0,-2.486600343500001,Ba2Cd1Re1O6,mp-551702
0.0,-0.7564561199999993,Zr2V2Si2,mp-5541
3.4292,-2.2558204413938276,Sr12Se12Cl8O32,mp-554805
2.4922999999999997,-3.057205257778714,Ta9Pb12O20F29,mp-555105
5.5241999999999996,-3.014020902281746,Ba4Ca4P16O48,mp-556122
3.8485000000000005,-2.8999820558194447,Na4Sr4B4O12,mp-556695
1.8007,-1.8330754044531254,Tb6Cu2Ge2S14,mp-557517
1.6868999999999998,-3.3031794827675,Ca1Cr1F6,mp-557519
1.4011000000000002,-0.964055243888291,Rb8Ag4Sb4S16,mp-557540
2.6644,-2.5445992750175,K2Bi2F12,mp-557724
3.8832000000000004,-2.8205398806663635,Na4Cr2Ni2F14,mp-558356
1.9236000000000002,-1.644025891348523,Rb16Zr8S32,mp-558772
0.02070000000000005,-3.0963932463638266,Ba15Cu12Cl3F51,mp-559141
1.657,-2.6281962852675,Cr1Cd1F6,mp-559161
0.0,-0.49019561083333346,Ho4Co4Sn4,mp-5601
1.5192999999999999,-1.2289762291303572,K24Nb16S100,mp-560348
0.05010000000000003,-2.923835447860451,K3Na3Nb8P5O35,mp-560541
2.3306999999999998,-1.056954448640395,Na6P4Pb3S16,mp-560831
3.393,-1.6675227586049999,As12Pb8Cl4O24,mp-561268
3.8023999999999996,-3.344763121994048,Nd6B2W2O18,mp-561272
3.331,-2.661152066576069,Cs3Tl1F6,mp-561827
2.6134,-1.2452466725962505,Sr8Ca16W8N32,mp-567568
0.0,-0.23370023622950814,Ba21Al40,mp-567701
0.0,-0.7973992330000008,Ca1Si2Pd2,mp-567769
0.0,-0.46269340722222224,Yb2In4,mp-568058
0.0,-0.4174628711330046,Ni21Sn2P6,mp-568562
1.8468999999999998,-0.43497084797619,Mo24Pb4I56,mp-569225
0.0,-1.9660464503454547,La4C2Cl5,mp-569637
0.08930000000000016,-1.8432612324999997,Ce2Br6,mp-569850
0.7232000000000003,-0.47005182090499975,Ba1Al1Si1H1,mp-571093
1.9126999999999996,-0.9064092782799994,Ca6Ga4N8,mp-571162
4.8811,-3.4688661582499996,Ca12Si12O36,mp-5733
2.088,-0.9916913922844829,Cs4Tl4Br16,mp-573702
0.0,-0.2770573899999995,Eu1Al4,mp-582799
0.0,-0.8290509459201397,Ti24Se12,mp-620032
0.0,-0.7817742933333331,Gd1In1Pd2,mp-624070
0.0,-2.919029780457794,Na4Eu4P8O28,mp-6272
0.9503000000000004,-0.9725515449485707,Sr8Li16Cr8N24,mp-629430
3.2767999999999997,-3.435824218583334,Ba3Mg1Ta2O9,mp-6325
3.2228999999999997,-3.204368221125,Ca12Cr8Si12O48,mp-6414
0.09379999999999988,-2.0476622694940394,Na1V3H6S2O14,mp-644318
0.0,-0.2999463476365711,Ba14Na14Li1N6,mp-645662
0.0,-3.5658208786363654,Ce16Si16O56,mp-672208
1.1629999999999998,-1.3293466595399999,Er14C4I24N2,mp-679936
3.9964000000000004,-1.5481144476418751,Be4H32Se4O32,mp-708961
0.0,-1.6711403224399994,Sm1N1,mp-749
0.0,-0.06467377307692218,Hf1Mn6Sn6,mp-753669
0.0,-1.7731860952083334,Li4Rh2O6,mp-754870
2.2680000000000002,-0.6231333326319998,K8Mg4H32N16,mp-759183
0.0,-1.4266986964285715,Li2Ni3Te1O8,mp-764098
0.0,-0.29716261066666616,Sr1Si2Ag2,mp-7880
0.0,-0.8643639661111107,Zr3As3Ru3,mp-8221
1.9747999999999999,-1.6535503768750006,Li4O4,mp-841
0.0,-0.9410238883333335,Ca2Pt4,mp-842
0.0,-0.6921058579513889,Ta2Pd1Se6,mp-8436
0.0,-0.5947788387499999,Sc1Rh2Pb1,mp-862629
0.0,-0.4780921350000007,Al1V1Os2,mp-862700
0.0,-0.37606857104166647,Pm1In1Ag2,mp-862923
0.0,-0.42252814083333323,Pm2Cd1In1,mp-862996
0.0,-0.22331723874999998,Pm2Ni1Ru1,mp-863717
0.0,-0.19528482187500007,Pm2Ni6,mp-863718
3.6289999999999996,-1.151352187823333,In2H8N2Cl8,mp-863731
0.0,-0.39014696125000015,Ta2Mo1Os1,mp-864770
0.0,-0.32492357250000126,Hf1Tc2Sb1,mp-865023
0.0,-0.33424730312499973,Li1Sm1Tl2,mp-865116
0.0,-0.46886100750000104,Tm1Ta1Ru2,mp-865262
0.0,-0.37718528208333346,Tm2Cd1In1,mp-865302
0.0,-0.7472178012500006,Lu1Zn1Rh2,mp-865566
0.0,-1.7814143207500002,Yb6Si2O2,mp-865782
0.0,-0.3804327981250002,Ca1La1Cd2,mp-866000
0.0,-0.5421368143749998,Ca1Sm1Hg2,mp-866014
0.0,-0.32726171875,Ho1Nb1Ru2,mp-866112
0.0,-0.5092974324999999,Li2Pd1Au1,mp-866176
0.0,-0.3677785956249999,Ca1Nd1Cd2,mp-867224
0.0,-0.43743068875000013,Tb2Al6,mp-867232
0.0,-0.25607461249999997,Al1Cu1Au2,mp-867306
0.0,-0.3095686733333336,Ca2Mg1In1,mp-867350
0.0,-0.10769415500000079,Tc6Ni2,mp-867357
0.0,-0.5102807875000002,Ce1Tl1Au2,mp-867361
0.0,-1.2155283413392866,Ti6Se8,mp-9227
0.0,-1.1955045795312502,Nb2Sn2S4,mp-9586
0.0,-0.6005384112500005,Zr1Ge1Ru2,mp-977443
0.0,-0.6525554183333332,Lu4Ni4Sn4,mp-977588
0.0,-0.47070338062499983,Sm1Dy1Hg2,mp-978557
0.0,-2.270567165140754,Cs2Se1Cl1F6,mp-989544
0.0,-0.4841081800000008,Y2Si4Re8,mp-9906
0.0,-0.3107146634482768,Mg3Ni20B6,mp-10117
0.0,-0.5127832119444449,Tm2Ni8B2,mp-10129
0.0,-0.15101760611111104,Ti2Zn1,mp-1014229
0.0,-0.6305833911111117,Ti2Rh1,mp-1018124
0.0,-0.344341521111111,Lu1Ag2,mp-1018131
0.0,-0.4149831766666665,Al1Tc2,mp-1018166
0.0,-0.401776996,K2Cd2Sb2,mp-1018652
0.0,-0.34770526673469454,Cd1P1Pt5,mp-1025187
0.0,-0.5842241510649995,Na4Cr4N8,mp-1029407
0.0,-0.3823744465968275,Na8Mn4N8,mp-1029605
2.9934000000000003,-2.3119081266654935,Rb8Te4Mo8P8O56,mp-10447
0.0,-0.32477991875,La2Ni2,mp-1064719
0.0,-0.3385424100000005,Gd1Pb3,mp-1076927
0.0,-0.4137295310267857,Pd3Pb2Se2,mp-1078089
0.0,-2.302419591607037,Sr2Ti2Bi2O1F2,mp-1078216
0.0,-0.9485664362500001,Y2Al2Pd4,mp-1078242
1.2245999999999997,-1.577392909583334,In1Ni2Sb1O6,mp-1078367
0.0,-0.5189144637500007,Lu4Ni4,mp-1078899
0.0,-0.9257028783333341,Tm3Sn3Pd3,mp-1078911
0.0,-0.714802988333333,Li3Tb3Ge3,mp-1078961
0.0,-0.7959326761111103,Hf3As3Ru3,mp-1079079
0.20989999999999975,-0.7061028274479169,Zn1Ag2Sn1S4,mp-1079889
0.0,-0.6383747083333335,Pr3Mg3Pd3,mp-1080740
0.0,-0.9279153460000004,Pr2As4Rh4,mp-1080773
0.0,-0.04321034833333274,Mg4Al8,mp-1094116
0.0,-0.3267405811111104,Eu8In4,mp-1095519
0.0,-0.3351208408333335,V4Ni4Ge4,mp-1095536
6.6635,-3.6294485732100004,Na2Al2F8,mp-1102077
0.0,-0.485079906363636,Dy2Ga8Co1,mp-1102381
0.0,-1.1759244291666668,Er4Al4Pt4,mp-1102457
0.0,-0.6428122349999997,Y4Ga4Ni4,mp-1102603
0.0,-0.7208702975,Ca4Cd4Pt4,mp-1103046
0.0,-0.5865863886666669,Y3Ga9Ru3,mp-1104503
0.0,-1.1071382925353324,Ba6Re2N6O1,mp-1104571
2.2382999999999997,-2.173043785833334,Ba1O2,mp-1105
0.0,-0.5622959515625006,La10Pb6,mp-1105896
0.0,-0.5473983181249995,Gd10Pb6,mp-1106250
2.2741000000000002,-2.105731625556,K2Lu1Cu1Cl6,mp-1112229
0.0,-0.5513828288888887,Lu6Fe1Sb2,mp-11203
0.0,-0.3391055166666668,Ba2Cd4,mp-11266
0.0,-1.6102143035714294,Er1P1,mp-1144
1.7910000000000001,-0.7245405074407462,K4Mg2P4Se12,mp-11643
0.0,-0.4887052299999996,Ba2Zn2Ge2,mp-11818
0.0,-2.8026929839633343,Ba2Y2Mn4O10,mp-1182186
0.0,-0.1754617841666668,Li1Zn2Ag1,mp-1185422
3.8773,-1.772468377305862,Cs2As2H4O8,mp-1185571
0.5741999999999998,-0.025111467366666414,Mg149Cd1,mp-1185581
0.11850000000000005,-0.012344884933333067,Mg149Nb1,mp-1185589
0.0,-0.5036446862500004,Pm2Ni1Pd1,mp-1186481
0.0,-0.9835204918749998,Pm1Eu1Pt2,mp-1186583
0.0,-0.4974520524999999,Sr2Tl1Pb1,mp-1187124
0.0,-0.7604169026562488,Ta6Cr2Se12,mp-1187280
0.043700000000000294,-0.5614374674999998,Yb2Zn1Ge1,mp-1187944
0.0,-0.3904440600000001,Zr2Tc1Ni1,mp-1188020
0.0,-0.887234388125,Sm4Ge4Pd8,mp-1188088
0.0,-0.6349894915000007,Pr4Ge10Ru6,mp-1188586
0.0,-0.3574886938888887,Dy12Ga2Ni4,mp-1189487
0.0,-0.28402796499999905,Ho12Os4,mp-1190011
0.0,-0.4587837625000013,Pr2Si4Ni18,mp-1190679
0.0,-0.7093436045238093,Ho2Mn12P7,mp-1192228
5.0419,-3.2913170428729996,K5Pr4Si4O16F1,mp-1192490
0.0,-0.45559433229591867,Hf18Re8P2,mp-1193199
1.7542,-2.519989547321429,Ba4Tb8S16,mp-1193223
2.6845999999999997,-1.2375395393888549,Rb12Sb4S12,mp-1193319
0.0,-1.6520597594335937,Ce8Zr4Se20,mp-1194651
2.2049999999999996,-1.938994234104168,Nd16Ga4Sb4S36,mp-1195907
0.0,-3.378627158802084,Eu8Ti4O20,mp-1195915
0.0,-2.467986179037162,Ce4Ho11S22,mp-1197418
5.1366,-2.3001348438621796,Na40B8S32O128,mp-1197581
0.0,-1.2181579486111107,Tm20Pt16,mp-1199106
0.0,-0.06350362236842132,Sm4Co34,mp-1200096
0.8871000000000002,-0.43371867851190476,Pr8Si16P48,mp-1200288
0.0,-0.5500052708750005,Yb12Ge52Pt16,mp-1200714
0.0,-0.5446082943229152,La21Mn8Bi7C12,mp-1200955
0.8272000000000004,-0.0023261531250007295,P28Pb4,mp-1201560
3.2919,-3.550734220892857,Ba4Gd4Si8O26,mp-1202971
0.0,-0.6562233928676465,Ta32Co4Se32,mp-1204251
0.0,-0.16716975130434789,Gd2Zn40Co4,mp-1204825
0.0,-0.5047515052500003,Sm2Si2Os4C2,mp-1205528
0.0,-0.6767050841785718,Er2P2Ru4C2,mp-1205587
0.0,-0.7773624996666655,Ce4In2Rh4,mp-1205710
5.0018,-3.0485933780155556,Li2Sn1F6,mp-1205739
0.0,-0.39963993972222295,Ho1In1Ni4,mp-1206024
0.0,-0.5889544993750002,Nd2Al4Ni2,mp-1206051
0.0,-0.5224778244571432,K1Fe2P2,mp-1206409
0.0,-0.24373612466666614,Ce4In2Cu4,mp-1206783
0.0,-1.4804044422500007,La3Al1O1,mp-1206996
0.12400000000000011,-0.6463239145399996,Yb6H4Pb2,mp-1207559
0.0,-0.3048908043749998,Y6Tl10,mp-1207757
0.0,-0.3398670469230773,V5Te8,mp-1207855
0.0,-0.21318851595238084,Ti8Cr2Bi4,mp-1208257
0.0,-0.2053421050000003,Tb16Mg4Ni4,mp-1208458
1.8777,-2.754650394843749,Sr20Re12Br4O60,mp-1208774
0.0,-0.8506780729411754,Sc4Ge6Ir7,mp-1209061
1.5735999999999999,-0.5982458915039066,Tl8As40Pb8S72,mp-1209142
3.7710000000000004,-1.7378674656681035,Rb4Ba8I20,mp-1209423
0.0,-1.449913992156251,Na1Y1Pd6O8,mp-1209918
0.0,-0.5222722958503399,Pr6Cu24P12,mp-1210159
1.1587000000000003,-0.7349860889548613,Na10Ag2Ge4Se14,mp-1210225
0.0,-0.530159423235294,Pr46Mg8Pt14,mp-1210244
0.03289999999999971,-0.2188096358333335,Lu16Mg4Ni4,mp-1211003
0.0,-0.23382411764705868,Lu12Fe2Pb3,mp-1211018
0.0,-0.695989611071429,Li8Pr20Sn28,mp-1211048
0.0,-1.3470469956944437,La10Ge6O2,mp-1211687
3.9624,-1.8736381448125001,K8Nd4Br20,mp-1211863
0.0,-0.6520526539166667,Ho10In20Pd10,mp-1212252
0.0,-0.25409318541666676,Ho16Mg4Ru4,mp-1212321
0.024700000000000166,-0.2538227884558821,La46Cd8Ni14,mp-1213625
3.0191999999999997,-2.231138053850575,Cs1Cr1Mo2O8,mp-1213686
0.0,-0.8814120937499995,Ce8Si8Pd8,mp-1213807
0.0,-0.6001509274999997,Ce8Sn12,mp-1213936
0.0,-0.7348907565000005,Ba4Sr4Bi12,mp-1214332
3.0220000000000002,-3.0943316349224137,Ba12Na4Ta4V4O34,mp-1214664
0.0,-1.976144252265625,Y2As1S1,mp-1216047
0.0,-0.2494116581538457,Y14Ag51,mp-1216365
0.0,-0.3696753954166665,Ti1Zn1Ga2,mp-1216640
0.9569000000000001,-2.3538717497339645,Tl12V14P10O62,mp-1217668
0.0,-0.8380910704166666,Ta3Ti1B4,mp-1217975
2.9953,-3.2522137435326854,Rb4Ta4Ti4O20,mp-1219631
1.0613000000000001,-2.0175588431250002,Nd6Mn1Si2S14,mp-1220237
0.0,-0.8307445935511363,Nb18Tl2Se24,mp-1220574
0.0,-0.24559080472400013,Nb6Sn2H2,mp-1220590
2.6475999999999997,-2.4830220857057825,Mo4P8O30,mp-1221698
2.1561,-3.002165634682223,Li2Mg2Co2F12,mp-1222326
0.0,-2.6167670032500006,La2Nd2Co4O12,mp-1222992
0.0,-0.6573229774999989,La2Al1Ge1,mp-1223252
3.3036,-1.685466376057678,K6H2Se4O16,mp-1224049
0.0,-1.0859384484656862,Na17Mo60S76,mp-1224118
1.1691000000000003,-1.8727922930357146,Ga1Sb3Pb4O13,mp-1224914
0.0,-0.3529656484615377,Gd1Al6Cu6,mp-1225036
0.0,-0.5248463900000004,Dy1Al1Ni4,mp-1225297
0.0,-3.0255526159546475,Cs2Na2Eu2Nb10O30,mp-1226662
0.0,-1.2245637149999995,Ce2Sb1Te1,mp-1226772
0.0,-2.889554054941999,Ca4Tb8Mn12O36,mp-1227302
3.1538,-2.823056048684211,Ca2Gd4Ge8O24,mp-1227314
0.0,-0.30520008000000054,Bi2Pd1Pt1,mp-1227322
0.0,-0.42339002444444496,Li1O8,mp-1235059
0.0,-0.7921241313771422,Ba6Re2N6,mp-1245965
0.0,-0.5675742510714281,P4Ru4,mp-12636
0.0,-0.5963137719999999,Sr2Ga4Au4,mp-12780
0.0,-0.8090347832142858,Nd6Au8,mp-12788
0.0,-0.18904254999999903,Al2Cu6,mp-12802
0.0,-0.5964702344999993,Sm1Mn2Si2,mp-13473
0.0,-0.36139203687499943,Tm1Co1C2,mp-13502
1.6488,-1.0384150331848663,Cs2Pt3S4,mp-13992
0.0,-0.7246756674999991,La2Ir4,mp-1463
0.09229999999999983,-0.42791467166666664,Ba8Li4Si12,mp-15521
0.0,-0.6470696349999999,Sr2Pd4,mp-1558
1.7427000000000001,-1.4372478809159484,Sr24Sb24S68,mp-16061
0.19589999999999996,-0.5830786724999998,Ba4Ca4Ge4,mp-16252
3.6593000000000004,-3.7545822782500005,Pr16O24,mp-16705
0.0,-0.5505822199999993,Sc4Cr8Si10,mp-17334
0.0,-1.018941001269842,Zr8Co16P12,mp-18133
0.0,-1.0279029081249988,Ta12S8,mp-1826
0.0,-0.6677215699107144,V24P8,mp-18350
1.1042999999999998,-1.76281091099077,Mn3Cd2O8,mp-18870
3.9834000000000005,-2.9726187364742858,Ba2Mn1B6O12,mp-18990
1.6341999999999999,-1.8697142976371421,Mn4Sb8O16,mp-19231
2.8099999999999996,-1.7207523433750005,Te8Mo4O28,mp-19453
1.1076000000000001,-0.7880540244709001,Ba6In4P8,mp-19913
0.0,-0.14520813999999996,Be4Cu2,mp-2031
0.0,-1.3784324849999994,Sc1As1,mp-2052
0.0,-0.6761175824999999,Nb2As2,mp-2059
0.0,-0.4095752708333329,Sm2Cu2Pb2,mp-20637
0.0,-2.659059732096,Ba2Mn1Re1O6,mp-20813
0.0,-0.8422096627777762,Ce3Sn3Ir3,mp-20835
0.0,-0.40033368458333296,Co4B4,mp-20857
0.0,-0.6932994724999997,Zr2Te6,mp-2089
0.0,-3.140329509375001,Eu1O1,mp-21394
0.0,-0.34359900374999963,Pr3Pb1,mp-21481
0.0,-0.5301620697916656,Sm2In4Ir2,mp-21853
0.0,-0.8101244758333337,Eu4Sn4Pd4,mp-22031
0.0,-0.9768508550000004,Lu1Pd1,mp-2205
0.0,-0.5685539027777781,Sm4Mn4B16,mp-22785
0.0,-3.4018355356700005,Ce2Cl2O2,mp-22952
1.3849,-0.9456636764444445,Na3Hg6I3O6,mp-23110
0.964,-0.5668901602533332,Cl8O16,mp-23207
0.0,-2.31518748654,Sc8N2Cl12,mp-23414
3.4996000000000005,-1.949107685526316,Ge6Bi8O24,mp-23560
4.6558,-0.22924457732999967,Na2Al2H8,mp-23704
0.0,-1.657517910626667,Er2H2Cl2,mp-24051
0.0,-0.1005846866666668,Ni1I2,mp-27638
1.8486000000000002,-1.5884844231439401,Ag4Mo4O14,mp-27966
0.0,-0.18523680333333323,Y1Cu5,mp-2797
0.0,-1.9402695511899992,Hf1N1,mp-2828
0.0,-0.601972449999999,Al1Co1,mp-284
4.344,-0.807567787418311,P8N12O2,mp-28950
0.0,-0.32319551291666715,La3In1C1,mp-29056
2.6397000000000004,-2.757015258776043,Ca9Ga12O27,mp-29226
0.0,-0.8575556270000007,Ho1Si2Ni2,mp-2924
0.0,-2.074633438689473,Sc7C2Cl10,mp-29315
1.6824999999999999,-0.9772616627104166,K48Sn16Se56,mp-29386
1.8558999999999997,-1.3505161843333326,Na12Tl4O8,mp-29454
0.0,-1.5295499550000002,Ho1As1,mp-295
0.0,-0.9621362224519998,Ca16Ge8N16,mp-29809
0.0,-0.48908154250000013,Li2Ga1Rh1,mp-2988
0.036900000000000155,-1.304124608125,La24C16Br24,mp-29994
0.0,-0.7834928849999994,Ho6Ge6Ru4,mp-30172
0.0,-0.47328726833333334,Li2In1Au1,mp-30392
0.0,-0.2599983149999998,Bi4Pd12,mp-30463
0.0,-0.72012981625,Dy10Sn6,mp-30623
0.0,-0.5441065250000008,Zr6Ga4,mp-30684
0.0,-0.3648961749999997,Y4Zn12,mp-30884
0.0,-0.5310157784374994,La1Ga6Pd1,mp-30919
1.4223000000000001,-0.4373897981818182,Ga2Pd1I8,mp-30946
4.3579,-3.9401045637500003,Sm4Sc4O12,mp-31118
0.0,-0.7419890808333337,Sr12Sn12Au12,mp-31281
0.0,-0.8576626987500005,Sm2Pd2,mp-31380
0.0,-0.4340134962499995,Sc3Fe1C4,mp-3155
4.758,-3.7321963217500005,Er12Al20O48,mp-3384
0.0,-1.2440974898809525,Nd2P2Pd2,mp-3570
0.0,-0.9081440940000001,Ce1Si2Pd2,mp-3826
0.0,-0.9385839650000001,Ho1Si2Pd2,mp-4148
0.0,-0.12751728803921564,Lu8Fe56B4,mp-4214
2.2014000000000005,-1.8513251687708339,La12Ga12S36,mp-4816
0.0,-0.4803508499999998,Lu1Ga3,mp-495
0.0,-0.4164164399999999,Al1V1Co2,mp-4955
0.0,-0.5294423003645837,Cu6S6,mp-504
0.0,-1.1281963528999994,Na4Cu8O8,mp-505090
5.011299999999999,-2.3726512480680424,Cs8S4O16,mp-505782
0.0,-0.8677128887362642,Ce4Ni14P8,mp-505789
0.0,-0.8146721241666673,Ho8Ti12Si16,mp-510084
3.2445999999999997,-2.6827514894166655,K2Y2W4O16,mp-510264
0.0,-0.5155036863888883,Er1Co3B2,mp-5353
0.0,-0.08226116444444405,Sm8Co28,mp-540547
1.7008999999999999,-2.243790836428214,Er4Au10F42,mp-541347
0.0,-1.4562811185589992,Ce6Si12N22,mp-541712
0.0,-0.12119648238505783,Cs3In9,mp-542339
0.0,-3.0786711444420005,Dy6Mn6O18,mp-542479
0.0,-0.8332512333333341,Tm1B1Rh3,mp-5438
2.0525,-2.921967253369999,Na2Mn2F8,mp-554517
4.4703,-2.190627900067308,Na16Zn8S16O64,mp-554754
2.4250999999999996,-1.2090771637500004,Ru8O32,mp-554791
0.0,-2.3362646642500002,Ba6Mg2Ir4O18,mp-554909
0.0,-3.0979963674893107,K9Eu3Si12O32F2,mp-555060
3.4452000000000003,-2.22048908051282,K10In2Mo8O32,mp-555710
3.5496,-2.8497669656428575,Na4Sm4Ge4O16,mp-555904
1.6882999999999997,-1.3420835492692627,Cs12Ta8S44,mp-556091
0.0,-3.510378059580476,Eu10Si6O24F2,mp-558207
4.5184,-2.5216574371486957,K4Ni4As12F72,mp-558932
3.8085999999999998,-2.6647937567083333,K2Nd2W4O16,mp-559456
1.3479,-0.9227625988506247,Au4Se4Cl4O12,mp-560549
4.428,-2.5622458752053796,Cs4Cd1Ni3F12,mp-561567
0.0,-0.3878453566666669,Ca5Al5Si5,mp-567191
0.0,-0.39994551666666683,Lu4Os8,mp-567590
0.0,-0.5250077410000002,Gd4Fe4I2,mp-567844
0.0,-0.5780020276666662,Er1Co2B2,mp-568509
0.9080999999999997,-1.1767624867773434,Sr16Sn8Se40,mp-568525
0.0,-0.568041024,Tb1Si2Au2,mp-569577
0.0,-0.10907135875000007,Pm1Mg1,mp-569593
0.0,-0.7156588475000003,Zr4Sb4,mp-569671
0.0,-0.12162831083333359,In2Au6,mp-569683
0.0,-0.8604819770588233,Yb4Ge6Rh7,mp-570070
0.0,-1.0018177788571427,Tm1Ni2P2,mp-570100
0.0,-0.5253198892857139,Ba10Al4Ge14,mp-570390
0.0,-0.21258290629629625,In5B4Ir9,mp-570692
0.0,-1.0251048825000002,Ho1Si2Rh3,mp-571071
0.0,-0.6243413762500001,Ba8Yb8Sn24,mp-571479
0.0,-0.16986482980769324,Y32Co20,mp-573425
0.0,-0.998006857357143,Sm1Co2P2,mp-573563
0.0,-0.8929914168571429,Eu1P2Pd2,mp-581754
0.0,-0.34346496663043524,La7Ni16,mp-582055
3.1981,-2.3945005393749996,Li4Ga4O8,mp-5854
0.0,-3.3728249841666673,Eu2Ta2O8,mp-5957
0.0,-0.29236787249999985,Mn1Ga1Ni2,mp-601285
0.0,-0.4640422975000007,Ce3In3Ru2,mp-606102
0.0,-0.9356615136363641,Eu3As4Pd4,mp-612175
0.0,-0.5604346951562515,Nb40As24,mp-623038
0.0,-0.14222093249999973,Mg12Ru8,mp-625
1.1015000000000001,-0.44539199302801746,Cs14Nb2In6As10,mp-631378
0.0,-2.300121787386365,Eu4Ru4O14,mp-637431
1.1097000000000001,-0.9805855745398359,V16P8S80,mp-648414
2.4277,-3.042791367458996,Na2Ti4P6O24,mp-6761
0.0,-0.9093704202361115,Y42B14C28I36,mp-680189
0.0,-0.12683370845454545,Mg20Zn35,mp-680671
0.0,-0.36114725973684125,Mg76Ir76,mp-683946
5.5745000000000005,-2.957474074867424,Sr8B64O104,mp-684018
4.109400000000001,-3.696063531247144,Ba8La12Si12O48F4,mp-686674
0.0,-0.9907169043571429,La1Fe2P2,mp-6956
2.5252999999999997,-1.8786217111590908,Na8Cr8O28,mp-704459
0.6563000000000008,-2.0757833020982153,La2Zn2P2O2,mp-7060
0.1858000000000004,-0.9551941358908049,Rb2Pr2Te8,mp-7199
0.0,-0.36755614000000064,Dy6Ni4,mp-7281
3.8898,-1.366494504474286,Be4H32I8O40,mp-734194
2.8476999999999997,-2.984389052176724,Cs2Dy2O4,mp-754138
0.0,-0.9408516183333341,Zr3Si3Ru3,mp-7544