band_gap,formation_energy_per_atom,full_formula,task_id
0.4877,-0.37541620491071415,K10P4Au2,mp-14624
1.7725000000000002,-2.2491141697317856,Pr8Au20F84,mp-14715
1.033,-1.9996017024062491,K2Gd4Cu2S8,mp-15553
0.4663999999999993,-2.128666287812501,Ba2Pr4Mn2S10,mp-16124
1.2066999999999997,-0.009294800624999766,Sn4Hg4P56,mp-16403
1.1162999999999998,-0.4257743121803159,Cs4Cu4Se16,mp-17095
0.01909999999999989,-0.7893283668749991,La4Sn8Rh4,mp-17370
5.501,-2.952779759451924,Ba2Na2B18O30,mp-17864
2.2234,-2.58834822703125,Yb1S1,mp-1820
3.0413,-1.3890115391796876,Zn4Se8O20,mp-18373
6.077000000000001,-2.9483184339484136,Li2Nd2P8O24,mp-18711
2.3211,-2.5908955600000008,Yb2Cr2O8,mp-19023
1.9544,-2.6213645669557826,V2Cd1P4O14,mp-19452
2.1523000000000003,-2.501453947285715,V8Cd4P8O40,mp-19510
0.01949999999999985,-0.8810126407142865,Eu2Cu2P2,mp-21373
1.2745000000000002,-1.2424446444980248,Cs2Gd2Hg2Se6,mp-22291
2.261,-1.3137436716507591,Rb6In2S6,mp-22303
0.008099999999999774,-2.6727013146590917,Eu6Ru2O14,mp-22365
0.9809,-0.5940098037202384,Zn1In2Se4,mp-22607
2.2583000000000006,-2.3714763290277787,Sr8Bi8O20,mp-23357
4.1073,-2.698747467228696,Na8Ga6Si6Cl2O24,mp-23656
4.151,-1.4549161706993603,Rb4H12Se8O24,mp-24022
3.4696,-0.2649697033099998,K1H1,mp-24084
0.6791999999999998,-1.0723583254022222,Sr10As6H2,mp-24338
2.9804,-1.4386091199622917,K6Ge2H6S6O4,mp-24340
2.1548,-1.525234637806122,Ca12P4I12,mp-27272
2.7096,-2.4961354420799995,Na1Bi1F6,mp-27420
1.0125000000000006,-2.344964153845715,Mg2Mn4O8,mp-27510
3.9022,-2.9255981497996664,K4In8F28,mp-27599
0.03069999999999995,-0.9296613895454544,Nb6Br16,mp-27771
4.876199999999999,-3.494887069836667,Sm2Cl2O2,mp-27823
3.0931,-2.2103983598716668,Ta4Cl16F4,mp-27854
0.6479,-0.9777463022988506,Rb2Pd1Br6,mp-28084
2.5673,-2.448293851437501,Lu4S6,mp-2826
1.4648000000000003,-0.4638713624305559,Tl16Si4Se16,mp-28334
0.019199999999999662,-0.4739532067857145,Gd2B3C2,mp-28702
1.3702,-0.6272788662242859,Li10Br1N3,mp-28989
4.393,-1.4634759760344829,Cs4Al4Br16,mp-29103
1.2159000000000004,-0.317043547346938,Co4Si12P12,mp-29187
3.8659,-2.519975813293333,Tl4Sb4F16,mp-29286
2.3292,-1.690956138426723,Cs2Bi2O4,mp-29506
7.5425,-2.4121595913371423,P4H4F16,mp-29514
2.1220000000000003,-0.6874808227777776,Mo12Br24,mp-29555
1.4415,-0.6830798089655173,Rb8Cd12Te16,mp-29901
1.3481999999999998,-1.0900513808674577,Rb1Bi1S2,mp-30041
5.7706,-2.947929283154444,Tl4B4F16,mp-30548
0.4203000000000001,-1.1688526249375002,Ta4Cu4S12,mp-3102
5.8123000000000005,-3.10270236965,Al4B6O15,mp-31408
3.6222,-1.6244392630288893,Ca4N8O24,mp-3142
6.8714,-4.0931821680458835,Ba12Al8F48,mp-3361
1.5034,-1.9424227207142852,Ga4Ni2O8,mp-35236
0.0020999999999995467,-2.0854326531314284,Mn4Sn2O8,mp-36884
4.726399999999999,-3.2962098112847227,La4S2O12,mp-4078
1.4473000000000005,-1.8209722332812504,Er1Tl1S2,mp-4123
4.4697,-3.130449257553573,Zr4P8O28,mp-5024
1.5827,-1.5515458052433702,Cs2K4Fe2O5,mp-505040
0.7043000000000008,-0.9115131595312508,Ga2Cu2S4,mp-5238
3.3797,-2.2102397340000004,K4V4Pb4O16,mp-541508
2.9022,-1.2812460212413792,Cs2Cd2Br6,mp-541899
1.7688999999999997,-1.5229010497030648,Cs16Pb4O16,mp-542099
0.038799999999999724,-0.22561839236842104,Gd2Zn17,mp-542437
3.175,-3.665546506171875,Ba3Lu4O9,mp-542832
1.2288000000000006,-2.2931400024999995,Pr1Bi2Br1O4,mp-551900
1.4258999999999995,-2.304007505625,Tm1Bi2I1O4,mp-552738
2.5732,-2.8356771591266665,Cr2F4,mp-554340
3.5286,-2.9145130542496696,Mg4Mn2P4O16,mp-555215
3.1331999999999995,-3.17184064073,Na4Nb4O8F8,mp-555305
2.0004,-1.5739853872051672,Sb4S28I4F24,mp-555408
2.1063,-2.898670049210527,Sr30Re12O72,mp-555428
3.7338,-3.118390230164259,Cs4Nb2Si8O23,mp-555696
0.8273000000000001,-2.1977519617785486,Ba12Ti10S30O2,mp-555781
2.9826,-2.2160861966875,Dy4Te10O26,mp-555940
4.3811,-1.5893252010375991,Mg2Tl2As2H24O20,mp-556009
4.1552,-3.3096061720238086,Ba1Zr1P2O8,mp-556139
1.1656000000000004,-1.9886575907288409,Rb12Sb20O56,mp-556234
2.5954,-2.435514060631229,Cd10Mo4P16O56,mp-556462
1.0505999999999998,-1.0800770425226305,Cs8Mn4Bi8S20,mp-556529
1.3560999999999996,-1.1385542968240594,Rb8Re12S24,mp-557824
2.1420000000000003,-2.2798735555833343,Cr16Si8Br8O28,mp-557963
3.4111,-1.4986713593269234,Nd4I12O36,mp-558346
3.2146000000000003,-2.392318748750001,Nd8Te12Mo4O48,mp-558484
2.4876,-2.3258261321174567,Rb16Cd8Si8O32,mp-558568
2.7641,-3.226277702826088,Li8Ti24Pb4O56,mp-558619
2.2881000000000005,-2.008198556323529,Zn16Si4Te4Pb4O40,mp-558938
4.8958,-2.5718467548095245,K4Bi4P16O48,mp-559020
4.4484,-2.182195096398149,Na9Li9C9O27,mp-559533
3.3151,-2.5376541271142856,Na8V4P4O24,mp-559869
0.6585000000000001,-1.0962072118566193,V8S18Br8,mp-559911
1.9283,-0.9858849560926316,K4Hg2Br4N4O24,mp-561222
0.1048,-1.2908697235357691,Na2W12C2Cl36,mp-567182
0.6465000000000001,-0.8516742784760005,Ba6Bi2N2,mp-567666
2.4144,-0.8030505636111109,In8Br16,mp-568108
1.4883000000000002,-1.3236868162630209,Tb6Cu2Si2Se14,mp-568779
2.6086,-1.3742295875520834,La3Al9Br36,mp-568896
0.5377000000000003,-0.6847536382121213,K24Sr12Sn6As24,mp-570311
1.3625000000000005,-0.7562994192636358,Sr6Ga6N10,mp-570971
1.2060000000000004,-1.3175768533463543,Pr6Cu2Ge2Se14,mp-571347
3.0748,-1.1846370192187508,Ni16Se16O48,mp-572987
3.2818,-1.4840446197577781,Al4Te4Cl28,mp-573751
2.1117,-1.4211462278313576,Cs2Y2Zn2Se6,mp-574620
5.1722,-3.629428581022728,Pr8Si8O28,mp-5913
3.8572,-1.548446883103448,Cs1I1,mp-614603
5.142600000000002,-2.69784261653,Al2H2O4,mp-625054
5.2273,-1.3242172990772725,H14Cl2O6,mp-625151
0.2866000000000004,-0.6684817001911116,Eu2H6Ru1,mp-634945
2.5366,-2.9996164507822174,Rb12Ti12P20O80,mp-6390
2.2799,-0.32798696335428545,Na2H4Pd1,mp-643260
1.8286,-1.009676295178388,Hg8Pb4N12O38,mp-646297
4.0904,-1.9152963456157637,Cs6Tb4Br18,mp-669304
3.7158,-2.6051916833484423,Na14In8P18O64,mp-6702
5.7593000000000005,-3.222795330625,Tm16B48O96,mp-680717
2.4331,-2.645235125791608,K8Fe8P8O32F8,mp-6834
2.1599,-0.8772963898211109,Li80Si16N48,mp-686208
0.9979,-2.0641953271333326,Li8Mn10O24,mp-691115
4.108199999999999,-3.274531478125001,Li4Y4O8,mp-7020
7.5534,-2.4449069087466664,B4H8O4F12,mp-707009
2.9157,-1.4236137306828005,Cs4Fe4H96Se8O80,mp-721077
3.9896,-2.396317989339748,Na6Ga2P4H4O18,mp-733844
1.8923,-2.73588317875,Nb4V4O20,mp-753993
0.5166,-1.6428415002777783,Hg1Sb2O6,mp-754065
0.9412000000000004,-2.920639632106364,Ho4Mn4O14,mp-754918
2.8121,-2.0383362269827585,Cs8Be4O8,mp-755292
1.6166999999999998,-2.0802666481250007,Li4Fe4O8,mp-755709
1.0627000000000004,-3.221537875500002,Y2Te1O2,mp-755756
1.5919,-1.8153821671428572,Li2Ni2Sb2O8,mp-756254
0.23550000000000004,-1.3706220842857146,Cd2Co4O8,mp-756301
3.8399,-2.28858191234524,K4Sb2P2C2O14,mp-756981
0.5083000000000002,-0.3891647791266664,Li1Zn1N1,mp-7575
2.3452,-1.876360026204545,K16Sb8O20,mp-757850
2.4186,-2.0040493180826666,Na4Sn2Ge4H4O16,mp-757981
2.5821,-2.5362919678409086,Y2Fe2Ge4O14,mp-767438
2.5211,-1.6298552274999998,Li2Bi6Br4O8,mp-768150
5.6722,-1.1219732829550004,Sm2Cl6O24,mp-768348
3.333,-2.5084876047883147,Cs12Ti4O14,mp-770128
2.5035,-2.0265346829615387,Na6Fe2As2C2O14,mp-771144
0.6214,-1.798462123125,Li7Co5O12,mp-771155
2.1006,-2.4939423168439854,Na4V12P8O52,mp-776555
1.6297,-3.0467869148137496,Li4V2O2F8,mp-780857
2.036500000000001,-3.0014939352430567,Eu2B8O14,mp-8109
0.8771999999999998,-1.4979814300727368,Cs2Nd4Cu2Se8,mp-862772
2.0136000000000003,-1.410011634375,Nd2I6,mp-864617
2.3688,-1.30624549077381,Ba4B4Sb4S16,mp-866301
3.1829,-2.038784429056923,Ca2Re2H8Cl2O12,mp-866312
0.040000000000000036,-0.4328612324999999,Tl2Te6Pt4,mp-9251
1.3347000000000002,-1.3775471607500005,K1Er1Te2,mp-9263
0.875,-0.6977772578571428,Ca1Zn2P2,mp-9569
3.7195,-0.8340074627020002,Li2C1N2,mp-9610
1.107,-0.0890637507000001,K2Pt1C2,mp-976876
4.0078999999999985,-2.8096305352887128,Cs2Tl1In1F6,mp-989537
0.5861000000000001,-1.0117217785833337,K4Pd6S8,mp-9910
0.7488999999999999,-0.7771199983701297,Na6Sr6Ga2P8,mp-10096
5.1537000000000015,-2.36548456008195,Rb16B8S16O68,mp-1020662
0.4299999999999997,-0.6932620220000004,Yb1Zn2As2,mp-10314
1.1110999999999998,-0.3130767602500004,K4Cu2Sb2,mp-10381
1.5191,-3.1057020032500007,Gd3Au1O6,mp-10559
1.0873,-2.6712898902499997,Sr2Mo2O6,mp-1078716
5.114,-2.71457848458,Na1As1F6,mp-1079088
0.32430000000000003,-2.4435141796473787,Cs2Na1Ce1Cl6,mp-1079458
0.43499999999999983,-2.2875699686008333,Ag1Sn1F6,mp-10809
1.0736,-0.4220700049999995,Te4As4Ru4,mp-1095634
3.509,-2.110777926379224,Cs4V2H2O8,mp-1096946
1.4815000000000005,-2.397567668689107,V2P2H2O10,mp-1101197
0.14679999999999982,-1.7997302996875,Sm4As4S4,mp-1102762
0.02600000000000069,-0.3135037380357143,Er2Al6C6,mp-1104636
1.1107,-1.2131418662557871,Ba4In2Bi2Se10,mp-1105202
1.5566,-0.9844485284999998,Nb2Al2Br16,mp-1105368
0.08829999999999982,-0.8675130361111106,Eu6Ga4As8,mp-1105637
3.1903,-1.5859858436580458,Cs2Nd1Ag1Br6,mp-1112944
5.227,-3.0239847432887133,Cs2Li1In1F6,mp-1113016
0.9179,-0.8362775966666666,Sr6Si4As8,mp-11677
0.3299000000000003,-1.9442803577678576,Pr4Eu2Se8,mp-1173369
2.1401,-1.9347437333466908,K3Na8Fe1H12S6N2O36,mp-1181575
1.0215,-2.4738351919375,Pr2Lu6S12,mp-1189644
2.8689000000000004,-4.011075364659092,Gd4Hf4O14,mp-1190245
2.2376000000000005,-1.7293199350434023,V2In2Se4O16,mp-1191502
4.163,-1.913637406687192,Cs6Ho4Br18,mp-1192709
2.3931,-1.832700539048846,Re2S4Cl2O18,mp-1193300
1.1635,-3.0172964549166674,Lu6Fe6O18,mp-1193395
2.338,-3.1547992857148137,Li3Mn3V3F18,mp-1193542
1.3668,-2.651274211390977,Ba2Fe6P6O24,mp-1194498
1.085,-2.394890071137187,Na5Mn3S4O16F4,mp-1194736
3.184400000000001,-1.8420906372321428,Ba4Te16O36,mp-1195016
0.1341000000000001,-2.4161003358884483,Ba2Ti2Cu8P8O34,mp-1195143
2.1803,-2.473223143233084,Sr2Fe2Ni4P6O24,mp-1195488
1.3311,-2.3773323498415624,Na12Mn4S8O32F8,mp-1195590
4.1184,-1.6466394023988098,K4Zn6Se8O24,mp-1195606
1.0464000000000002,-2.3157121959765634,Nd8Hf4S20,mp-1196123
2.1819,-0.9683958748567044,Zr10Si12H72C24Br40O12,mp-1196506
2.1900000000000004,-2.6035271221349388,Rb7Sm1Fe6P8O34,mp-1196551
2.4763,-2.3151745039423086,Sm4V8I4O36,mp-1196559
5.1726,-0.2437552458,Li6Mg2Zn10B30H120,mp-1197046
3.7561,-3.1122762843750005,Ba10B6Br2O18,mp-1199246
3.6856,-1.6871081000337504,Zn4Sb8Cl8O12,mp-1199855
2.4424,-0.4991745475080481,Sb4H36C6I18N18,mp-1202009
0.9055,-0.408082487872332,Rb4Na32Ga12P24,mp-1202177
3.9613,-2.5292062422222217,Li4Zr8As12O48,mp-1202818
0.5493000000000006,-1.284878080875,Sc32Fe8Br40,mp-1204900
3.4949000000000003,-3.514560905,Ba2Nd1Ta1O6,mp-1205600
0.14840000000000053,-0.8175824833333335,Sc1Bi1Pd1,mp-1206681
1.849,-0.8715851844270835,Zr2Hg6S4Br12,mp-1207395
0.9058000000000002,-1.6505746200000004,Zn12Cd12Te8O48,mp-1207534
1.2572,-2.530889861846,Sr4Mn2Te2O12,mp-1208762
4.961,-2.483485722809448,Rb12Er4Cl24,mp-1209416
3.5027,-2.0526903672943604,Rb4La4Se8O32,mp-1209487
3.5969,-2.6223548035704014,Rb4Er4Mo8O32,mp-1209587
1.1481000000000003,-1.5743555483125795,Rb4La2Ta12Br30O6,mp-1209666
2.4043,-2.8181706329687497,Nd4Cr4Ge4O20,mp-1210145
5.4526,-1.9991752549342858,Na8Be4Cl16,mp-1210352
5.7506,-3.2623882370300006,Na4Mg2Ga2F14,mp-1210433
7.3892,-3.902888345571111,K2Y2Be2F12,mp-1211247
0.009999999999999787,-0.757758708181818,La8Ge14,mp-1211472
4.9706,-2.9688172876096943,Na24Er8P16O64,mp-1211481
0.9927,-0.969592108,K4Fe4Br16,mp-1211520
0.7133000000000003,-1.0354975504393942,K2Zr12B2I28,mp-1211525
3.5578,-2.6277275381666656,K4Tm4Mo8O32,mp-1211532
2.9596,-2.3143992841802725,K8Te4Mo8P8O56,mp-1211929
0.6176000000000004,-2.4146623895375003,Eu8Tl4Cl20,mp-1213054
0.033600000000000074,-1.6960966665175,Cu2Pd2F12,mp-1213075
0.2824,-2.111752097205513,Cu2Ag4P8O24,mp-1213222
5.0656,-2.512983725318069,Cs12Er4Cl24,mp-1213797
2.7541,-1.5267973069839134,Cs4Mn2H24Se4O28,mp-1214073
1.8617,-2.5904439647800004,Ca4Mn4Ge4O16,mp-1214074
4.8169,-4.286351467873182,Y14O12F18,mp-1216198
1.2881,-1.1321328503125003,Tm2Cu6S6,mp-1216740
1.2913,-0.9494633186490232,Ti4Tl6P10S36,mp-1217446
2.8595,-3.806891589962123,La16Ti16O56,mp-12192
2.3551999999999995,-1.7742516071019998,Na1Bi3Cl2O4,mp-1220820
4.117800000000001,-3.080493418335,Na4Ca7Mn1Si12H4O36,mp-1221263
4.9633,-3.698483417159092,La4Ho4Si8O28,mp-1222979
4.216,-2.1882620576603955,La2H6S6O24,mp-1222988
3.4923,-1.8303789089000009,K2As6Pb8O24,mp-1223607
0.9177,-0.4629968526851853,K20Nb2In2As12,mp-1224638
2.1494,-2.9355816508712125,Gd4In2Sb2O14,mp-1225008
0.552,-0.6737639766300001,Cu1Cl1,mp-1225654
0.5984000000000003,-3.04639143927,Er8Mn3Mo5O28,mp-1225972
3.8394,-1.6711014757911689,Cs4As2H6Se2O16,mp-1226376
0.6269,-3.0496908341266664,Ca2Cu2F8,mp-12266
1.9534,-3.228261421596,Ca2La2Mn2Nb2O12,mp-1227173
0.15730000000000022,-0.3589318325000003,Bi4Te4Rh4,mp-1227426
2.1048,-0.958514391623808,Cs4Re8Os4Se16Cl12,mp-1228026
2.99,-3.2550392402817154,Ba4Nb2P4O18F2,mp-1228528
1.001,-2.4423702764829893,Cs2Co2Ni2F12,mp-1228915
1.2836,-1.2715025526388894,Ba9Bi18S36,mp-1228976
2.4158,-1.828157934612069,B6Pb20Br6O26,mp-1229254
1.5451,-1.0917070227011496,Cs2Tb2Cd2Te6,mp-12495
4.0215999999999985,-2.5439911472871435,Tm2C1N2O2,mp-13039
5.0364,-3.7446549507499993,Lu12Al20O48,mp-14132
0.4990000000000001,-1.5375505842499997,Cd6Te2O12,mp-14243
2.2315,-2.5316654569216475,K4Rb2Pd2F10,mp-14334
5.73,-3.657538381172667,Na1Zr2Zn1F11,mp-15141
0.8790999999999993,-0.9483540343750008,Fe2S4,mp-1522
4.755800000000002,-2.5011656693638398,Zn4P16O44,mp-15438
0.30799999999999983,-1.014060062695313,Hf2Se6,mp-15622
1.6735000000000009,-3.1497218475000004,Pr2Te1O2,mp-16032
3.2745999999999995,-2.419412122447369,K2Cd12P14O48,mp-16382
2.3656,-1.839419876250001,Tb16Si12S48,mp-16402
4.3938,-3.2651714464393944,Sr6B4O12,mp-16432
2.0109,-2.4641603250769246,K4V6O16,mp-16787
2.1751,-2.3626315692392863,K2Mo6P4O28,mp-17306
3.0333,-1.3779596430769236,Ni4Te6O16,mp-17360
3.4186,-2.06949545485,K8Li12Ga4O16,mp-17774
2.4618,-2.696964414506001,Ta4Mn8O18,mp-17993
0.028000000000000025,-2.873353159866884,K4Yb4P8O28,mp-18184
2.285800000000001,-2.557321664090417,La8Mn2S12O2,mp-18292
3.1656000000000004,-2.40357074623276,Cs12Si4O14,mp-18315
0.9376,-0.5762480577098213,K8Se20,mp-18609
4.3758,-3.4736781395833347,Pr2Sc6B8O24,mp-18677
3.2214,-2.0618175733333337,Zn2W2O8,mp-18918
2.0333,-2.452469150792121,Mn6B4O12,mp-19185
1.0729000000000002,-1.8139574803199991,Mn4O8,mp-19395
1.4854999999999996,-2.3016823952777776,Cr4W2O12,mp-19894
0.06900000000000084,-0.6378766425000002,Zr4Ni4Sb4,mp-20697
1.3847,-0.6279453995833335,Li2In2Te4,mp-20782
0.9406,-2.107130784126667,Pd2Pb2F8,mp-20805
3.7752,-0.5159181763257134,Sr2N12,mp-2131
2.4067,-1.704854278000001,Co2C2O6,mp-21434
0.11079999999999934,-0.5316385212074828,Nd6Cu24P12,mp-21763
3.4667000000000003,-3.1262018756249987,Ca12Sc8Ge12O48,mp-21989
1.0237999999999996,-2.127464075046296,Fe24B8O40,mp-22223
3.418,-3.686519482172668,Na1Zr2Fe1F11,mp-22242
3.666500000000001,-2.440248595275976,P8Pb8O28,mp-22325
1.2969000000000004,-0.591516771059028,Ag4As4Pb4S12,mp-22665
0.4859,-0.2540413499999996,Cu1Br1,mp-22913
2.5688,-1.6972776790033333,Bi2Cl2O2,mp-22939
1.2909000000000002,-1.2550578232413792,Cs2Mn2Br6,mp-23048
0.8864000000000001,-0.4785595609999994,Ta12I28,mp-23238
2.5374,-0.4773990083333333,Hg2Br4,mp-23292
3.9221,-1.6353449061877114,Rb2Mn2H8Cl6O4,mp-23928
2.5239000000000003,-2.4335025615462498,La4Cr4H4O20,mp-24050
4.0856,-1.4992226524360006,Re2H8N2O8,mp-24128
5.0626,-1.9232857358184428,Be4P4H16N4O16,mp-24473
3.7216,-1.2674466389306671,Fe2H16Br4O8,mp-24537
7.6168,-4.440404155684167,Nd6F18,mp-254
1.256,-2.1194088590175,Tl4F12,mp-2632
0.9646,-1.7353797935624995,Na6Bi2O8,mp-27345
2.9716,-1.7989882211973791,Cs4Sn4Cl12,mp-27394
1.2290999999999994,-1.2868878227374978,Ta6N10,mp-27488
2.3666,-1.8207991101144447,In2Cl2O2,mp-27702
1.0294999999999996,-0.13742596333333346,Te4Au4I4,mp-27741
0.5940999999999999,-0.7711868645000003,Nb4Te4Br12,mp-28038
0.02070000000000149,-0.3712277755476199,Fe8Mo4P48,mp-28104
0.9884,-0.5795957998181817,Na8Ge4Te10,mp-28107
1.7082000000000002,-1.882697703806,Na6Cr2Cl12,mp-28360
3.1532,-2.877865832343751,Ba8W4O20,mp-28403
4.5391,-2.49409607380639,Bi4P8O26,mp-28541
2.5737,-0.22126816327199988,K4Si4H12,mp-28695
1.8007,-2.3326869972499997,La4Au4O12,mp-28853
1.7887,-1.3997007428177397,Rb16Cu20Cl36,mp-29449
0.6976000000000001,-0.442076271714286,K4Hg1As2,mp-29484
2.1636,-0.6220143282260004,Br4N4O12,mp-29526
1.6511999999999998,-1.0878419297000004,Na8Sn6S16,mp-29626
2.1193,-1.2929565912004313,Rb24Sn8S28,mp-29705
1.5857,-2.2176918741890908,Eu2Al4Cl16,mp-30022
0.019699999999999832,-0.5276996044318181,Ta4Se16I2,mp-30531
0.0987,-0.25562350499999953,Sr1Ga1Cu2,mp-30580
0.5765999999999999,-1.2736611483229168,Hg9S3O18,mp-30890
3.1994,-2.2449101038690475,P8Pb16O36,mp-31068
0.9024,-2.1285482775,Cr2Sb2O8,mp-33857
6.397399999999998,-3.729235522782965,Rb1Ca1F3,mp-3654
2.4442,-1.5550413968480608,Rb12Nb4S16,mp-3719
2.3364000000000003,-2.3844422777675,Cd1Pb1F6,mp-37216
2.6648999999999994,-3.0404772619318186,La4Sn4O14,mp-4086
2.7564,-2.284504886747143,Li2Co4P8H6O28,mp-41701
3.8015,-2.9974890954053794,Cs4Na2Fe2F12,mp-504611
2.0605,-1.8589945764870692,Rb4Cr8Fe4O32,mp-504649
1.4585,-1.7841651181250002,Cr2Cu2O4,mp-510625
2.0557,-3.0420754378833337,K2Na4Li2Ti4Fe4Si16O48,mp-510635
2.311,-0.5694513681818179,Tl8W24Br56,mp-530709
3.4284,-3.2816379952499997,Ba6Sr2Nb4O18,mp-540949
2.352,-2.5693427685481254,Nb4Hg6S2O8F20,mp-541093
1.8631,-3.1660744334722235,Ba4Y8Co4O20,mp-541574
1.3229000000000002,-0.4670479026440978,K8Ag4As12Se24,mp-541915
2.0789,-1.0799363363431342,Cs12Ga4Se12,mp-542448
3.3503000000000003,-2.422647321861112,In8Si8Pb8O36,mp-542840
0.006800000000000139,-0.6040013740000006,Gd1Co2Ge2,mp-542988
4.4908,-1.219459501095001,Na1C1N1O1,mp-546500
2.9977000000000005,-2.8058750417500007,Ba2Ca1Te1O6,mp-550685
1.9044,-2.3435540042575003,Sr2Fe2Se2O1F2,mp-550944
3.4739,-2.039895052192308,K8Ni4Mo8O32,mp-554864
4.331099999999998,-1.941332137968751,Sr4Zn4Se8O24,mp-555691
4.1945,-2.564485049770408,Li16Zn16P16O64,mp-555743
5.2407,-2.803075511749999,Na12B36O60,mp-556226
1.1921,-0.6568826325327379,Ag2Bi2P4S12,mp-556434
2.9652,-3.0218936476329015,K2Rb1Mn2F7,mp-558227
1.835,-1.8975139532976195,V2Ag4P2O12,mp-558255
1.1946,-3.0061871122500015,Tm6Fe6O18,mp-558400
3.1216,-2.417456225602857,Mn8P4Cl4O16,mp-558402
2.978,-2.118043726894157,Rb4V12Cd12O44,mp-558909
5.1083,-3.428145837857142,Li4Y4Si4O16,mp-558941
2.7068,-2.747140540465714,Er2Mo2Cl2O8,mp-559004
0.8528,-0.8340570898853852,Hg24N16O64,mp-559722
2.1162,-1.68861173129,Bi48Cl20O62,mp-560085
1.6921,-2.596793566985463,Cs2Mn2P8O24,mp-560117
5.2938,-3.3042357356825,Na4Ca4Be4Si8O24F4,mp-560721
1.2477999999999998,-1.7306246543859771,Cs2Re1Cl6,mp-567942
1.1269999999999998,-0.7535059503057135,Sr28Ge4N24,mp-568436
1.4227,-0.9079806699674078,Ga12Bi48Cl48,mp-569237
1.6912,-0.6203922844318176,Cu8Mo24Br56,mp-571184
1.3829,-0.7349230349251853,In4Hg24As16Cl28,mp-571341
1.8426,-0.608942142383916,Rb8Na40W16N48,mp-571412
2.2944000000000004,-1.24519318009375,K6Ta4Ag6S16,mp-573202
3.6867,-2.2018040317705565,Cs10Bi2Mo8O32,mp-573429
4.815,-3.2721571700744043,Sr12B2P10O40,mp-6044
1.891,-1.8329794960325,Na1Fe3H6S2O14,mp-604429
0.17720000000000002,-0.27294107904761944,In16Te12,mp-617281
0.7906000000000004,-0.6438398741145832,Cu4As4Pb4S12,mp-628643
1.6678,-1.2100753254626784,Mo12S28Cl16,mp-640341
3.7654,-2.8197912692500005,Na4Mg2Si2O8,mp-6406
3.9362,-2.0805167843425005,Ba4H4I4O4,mp-643384
0.4929999999999999,-2.3988564095446434,Na4Cu2P4O14,mp-6467
0.9421000000000002,-1.9362047323333325,Mn14Fe2Cl6O20,mp-653429
0.7806,-1.4797455037999996,Na16Cd8O16,mp-675693
3.0656,-3.5621563363124986,Na2Sm18Si12S4O48,mp-686543
2.2583,-2.6792544537830696,Ti2Cd2Fe2P6O24,mp-695054
3.8581,-2.189339995374285,K2Sc2As4H4O16,mp-695800
5.2718,-1.8916229813533336,Na4H4C4O12,mp-696396
3.6444,-1.3126769135533334,Mg1Zn2H12Br6O6,mp-697121
0.8817000000000004,-1.6174650257812508,Sc1Cu1S2,mp-6980
1.0301,-0.4577904171999997,K4Si2As4,mp-6984
3.4269,-2.3713582657025,Na4Zn4Si4H4O16,mp-699219
2.6319999999999997,-0.6185211668124997,Li16H8N8,mp-699284
2.4849999999999994,-1.2845975210909095,Ni34As12O64,mp-705872
5.0335,-1.1575037943758335,Al8H48N16Cl24,mp-740718
4.0671,-2.0520336541324062,In2B2P4H10N2O18,mp-752709
5.249599999999999,-3.534490392336668,Er2Cl2O2,mp-755689