band_gap,formation_energy_per_atom,full_formula,task_id
5.571999999999999,-2.344890098229216,Ca1Al6H12S4O28,mp-1194752
3.1366000000000005,-2.3298859290500005,K4Y4Te8O24,mp-1194980
2.2163000000000004,-1.8366093229829556,Co8Bi16S8O56,mp-1195268
0.7204999999999995,-1.6952053456835945,Pr8Zr4Se20,mp-1195609
2.4748,-1.2448522428660709,La4Tl4P8S24,mp-1195614
1.036,-3.056122342553652,Ba4Mn4P4O16F8,mp-1195656
0.5228000000000002,-2.210680328003248,P8Pd4Pb4O28,mp-1195693
2.1895,-1.1252435394758318,Cs8P4Au4S16,mp-1196015
5.1028,-3.1809248260675114,Cs4Er4P8O28,mp-1198204
4.4843,-2.9190741041162513,Ca8Al12H12O32,mp-1198782
0.026600000000000183,-0.1222566664358978,K6Na14Mg1Tl18,mp-1198979
6.0267,-4.068441564388334,Tm10B4O12F18,mp-1199949
3.5245,-1.7122269338394402,Cs4Ga4Se8O24,mp-1200987
1.8631,-0.4487751283217881,Cs4Hg2B18Se18,mp-1202194
1.0705,-0.9576583680555556,Ba12Al8As16,mp-1202519
1.2506,-1.9126240410322224,Mn8As4H4O20,mp-1202591
2.53,-1.5515501360299988,Gd4N12O36,mp-1203247
0.058600000000000214,-2.031037626282917,K4Ti16Cl44,mp-1203502
1.5142,-0.8808624241326191,Hg48Bi18As24Cl78,mp-1204118
2.0186,-1.7878639990104173,Tl2S2O8,mp-1208021
6.0659,-3.1257782082843133,Tb4Mg4B20O40,mp-1208392
0.028899999999999263,-0.3822607675,Ta8Ni12Te20,mp-1208475
5.1444,-3.6042786471875012,Tb4Be4Si2O14,mp-1208515
3.1373999999999995,-3.123705083625,Sr12Er8Ge12O48,mp-1209197
4.566,-2.664235938816483,Rb4Ho8Cl28,mp-1209406
3.9958,-2.3742792187886823,Rb8Hf1Mo6O24,mp-1209493
3.0842,-1.4901177572737068,Rb8Pr4I20,mp-1209562
5.8028,-3.04057160289314,Rb8Be12Ni8F48,mp-1209719
4.2119,-1.6947959753500002,Na6Ho2Br12,mp-1210506
4.660500000000001,-2.976316628234694,Na24La8P16O64,mp-1210985
3.7165,-3.093196574130437,La3Hf1Ga5O14,mp-1211281
2.8764000000000003,-2.0194291457208617,Cs2Ta2Cl12,mp-1213077
3.4111,-2.6560830284339065,Cs2Tb2W4O16,mp-1213324
2.3717,-1.0110212752355774,Na9Sm1Si4Se12,mp-1220844
0.6289000000000002,-0.6794504293636369,Na8Ca4Si2As8,mp-1221206
0.009000000000000008,-0.544413464461972,Li3Ce4B12H48Cl4,mp-1223687
0.0956999999999999,-0.7617251608571423,Er1Zn1Cu1P2,mp-1225396
1.9827,-3.253173430361111,Ba6Ti5Pt1O18,mp-1228124
0.0008999999999996787,-0.222305336428571,Ce4Cu20Au4,mp-12562
2.1442,-0.750161319866072,Sn4P4S12,mp-13923
1.0269,-0.3800597892857144,Cd1Ga2Te4,mp-13949
2.9147000000000003,-1.4997889239285718,Ca8Ga16S32,mp-14423
0.3101999999999996,-1.6877640654579746,Pr20Se38,mp-14613
3.9939,-2.9200817382783884,Sr12Ni6P12O48,mp-14884
1.8609,-2.4336708697214684,Zn4B6Se1O12,mp-14921
1.2291999999999998,-0.4628651848071428,K16Ga8P16,mp-15417
1.3851,-0.6450615156249998,Zn1Ga2Se4,mp-15776
2.3491,-2.2172799490312505,K1Dy1S2,mp-15785
2.5665,-2.5838390179166657,Nd6Mo12O45,mp-16678
1.9432,-2.101163205939375,La8Mn2Se12O2,mp-16841
0.9684,-0.3945341110476189,K12Na8Sn4P12,mp-16847
3.0137,-1.4907421050589988,Pr6Si12N22,mp-16929
1.9937,-1.3681459631342376,Rb8W4S16,mp-17048
2.1383,-1.024385302,K2Te1,mp-1747
1.891,-2.741188757857142,Ba8Cr4O16,mp-17520
3.9804,-4.1121116075,Tm16O24,mp-1767
1.5871000000000002,-0.8392631924770835,Na12Ge4Se14,mp-18100
3.8435,-2.166471410416668,Hf4Te12O32,mp-18352
1.473,-0.09631569166666648,Si6As6,mp-1863
2.3671,-2.780332007638889,Li4V2Si2O10,mp-18860
2.3225,-2.6650472369583342,Nd1Fe3B4O12,mp-18936
3.9675,-2.3733168238362072,Rb4Li2V2O8,mp-19123
3.0699,-2.0871795694285717,K8Cr4O16,mp-19232
0.03139999999999965,-0.7610409893333341,Gd1B1Rh3,mp-19840
0.9892,-0.6973025028333333,K2In2Te4,mp-19851
0.0006000000000000173,-2.4444279008925003,Cu1Mo1F6,mp-19859
0.011999999999999568,-0.1353897849999992,Zn1Co2Ge1,mp-19971
2.5506,-2.7052538687500007,La1Cu1O2,mp-20072
1.5799999999999998,-0.8729059826302086,Li2In2Se4,mp-20187
0.7567000000000004,-1.4870782873660715,Eu4P4S12,mp-20217
0.001100000000000101,-0.5782056479999994,Ce1Co2Ge2,mp-20933
0.8386000000000005,-0.3765962159523809,Cd1In2Te4,mp-21374
2.4571,-2.2327926745681825,Na4W4O14,mp-21896
1.0679,-1.59870508115,Na2Bi2O6,mp-23054
0.2975000000000003,-1.253237282247845,Cs1Er6C1I12,mp-23118
2.4489,-1.0693079039008615,Cs2Sn4Br10,mp-23467
1.4876,-1.3572258285294116,Ce2I8O24,mp-23493
3.3376,-1.7565674724477771,Ca8B4N8Cl4,mp-23632
4.1399,-1.4199798476111114,Fe1H4Cl2O2,mp-23880
1.4554999999999998,-2.1377497904547624,Mn2P2H4O10,mp-23895
0.7923,-1.5392234125504842,Tl4Cu2H24S4O28,mp-24196
1.4815,-1.1318631641204169,Hg4H8Se4O20,mp-24426
2.6781,-2.4055691404639883,Rb4Gd4H8S8O36,mp-24617
2.938,-2.598780048670636,Li4Fe4P16O48,mp-25977
2.7136,-2.6983540146590923,Mg4V4O14,mp-27150
7.1811,-3.491037198707112,Cs4Be8F20,mp-27192
5.147,-2.5694942064880952,Li12B4O12,mp-27275
2.6603,-2.223848937226,Sn4O2F4,mp-27480
1.3664000000000005,-1.2004918965555562,K6Ni4O8,mp-27565
1.4617,-1.2158527737500011,Ba8Sb16S32,mp-28129
1.894,-1.6617782880312504,Na8Sn2O6,mp-28261
3.6546,-1.3957225866165004,S2Cl4O4,mp-28405
2.1246,-1.1030150658250004,K8Hg4S8,mp-28859
0.9617999999999998,-1.9920136894947624,Ti12C2Cl28,mp-28913
3.0973,-3.533121708214286,Ba4Nd8O16,mp-2892
0.053399999999999885,-0.8183769684519995,Sr16Ge8N16,mp-29089
3.3240000000000003,-2.6085226100595227,Ho4Mo8O30,mp-29142
7.1693,-2.311514161780714,K8H20F28,mp-29330
2.2701,-1.259992793074405,Na12In4S12,mp-29375
0.8865000000000001,-1.5888298201562496,Er20C8Br36,mp-29401
4.2315000000000005,-0.6809658770609524,Na2P8N14,mp-29598
1.5574,-0.9442974071875004,Li4Au4S4,mp-29829
0.2589000000000006,-1.6734597290786646,Sm20Se38,mp-29832
5.3836,-2.2787900360072726,Ba2Al4Cl16,mp-30023
0.7579000000000002,-0.28204535521428553,Na16Al16Sb24,mp-30039
5.444000000000001,-1.2205573849111488,Cs4Cl4O16,mp-30206
1.7633,-0.7253352617187501,Tl8Ge8S16,mp-3075
3.4051,-3.1698545583333337,Nd2O4,mp-31049
1.8282,-0.8723892600647319,K12P4Se16,mp-31313
2.5338,-2.6892729349999995,Mg4Sn2O8,mp-34022
1.7672,-2.3819861948508336,Ag4Sb4F24,mp-3414
4.7718,-3.81293779328125,Y8Si4O20,mp-3520
0.006000000000000227,-0.4323085375000009,Eu2Tl4Pd2,mp-3891
4.6095000000000015,-3.4630892399166657,Sr6Si6O18,mp-3978
1.9292,-2.287607490376667,Ta4N4O4,mp-4165
2.4971,-1.0805898529791662,K4B4S14,mp-4351
3.6154,-1.691335796362223,Ba4N8O24,mp-4396
2.9553,-1.4556946126260002,Na2N2O6,mp-4531
3.6731,-2.1062244277083337,Zr4Te12O32,mp-4759
3.8080000000000003,-1.8674666995610116,Li12Se6O24,mp-4855
5.0765,-2.8999821185416668,Li4Si2O6,mp-5012
1.7129,-1.5415142254827583,Cs16Zn8O16,mp-504601
3.3960000000000004,-0.9460321699733332,Ni4N8O24,mp-504722
0.11959999999999993,-2.40879056039574,Cs4Cu3F10,mp-505031
2.9456,-2.8398543991875003,Ba6V8O26,mp-505392
0.6193,-0.5656319578055555,K8Li4In4As8,mp-505431
5.1542,-2.9971478321291203,Sc8P24O72,mp-5207
1.2332,-0.8306528227142859,K12Sn4Te12,mp-540619
3.1686,-2.412889384578201,Rb2Nb2Ge6O18,mp-540633
2.9156,-1.958160355900001,Na8Li12Fe4O16,mp-540965
2.6652,-1.7761436636315782,Na4Te8Mo2O24,mp-541918
4.1316,-1.9667478927604167,Sn4S4O16,mp-542967
1.3527000000000005,-2.37188392875,Er1Bi2Br1O4,mp-546621
2.9939999999999998,-1.8002045017482358,Bi24Cl12O28F4,mp-554249
2.0563,-1.2348314423523812,K18Bi2P8S32,mp-554554
3.7336,-2.432139159819138,Rb2Sb2Br2F6,mp-555234
0.6809999999999999,-1.5863929599374995,Ba4La4Bi8S24,mp-555699
2.818,-2.6075866170000013,Na2Mg4V6O20,mp-555794
2.8775,-2.6073820033496697,Rb4Mn4P4O16,mp-556338
1.0153,-1.8201707469531268,Gd6Cu2Sn2S14,mp-556782
4.113,-3.038853821755379,Cs2K1Mo1F6,mp-557133
2.7254,-1.934259292734456,Ti4P8Cl32O12,mp-557289
1.8444,-2.102256189583334,Ca8Fe8Sb8As16O56,mp-557398
2.4743000000000004,-2.2692968497916666,Ba4V4As8O32,mp-557424
2.8895,-3.4129380375000014,Ba4Li8Ti24O56,mp-558083
3.0309000000000004,-2.4513584299406816,Pr8S6N2Cl6,mp-558143
3.3536,-3.8195100023268256,Ba24Nb12O18F72,mp-558153
5.3971,-2.6558295780461663,Rb8Ca8S12O48,mp-558752
2.5161,-2.0377897734375003,Nb8Bi8Te16O64,mp-559861
4.2121,-2.5236732502616674,K8Te8O8F24,mp-559932
3.3195,-1.2507839126562506,Tl8Se4O16,mp-559961
2.6949,-1.9719731083846161,K12Li12Te4O24,mp-560739
4.0586,-3.072469241064,Na6Cr2F12,mp-560929
2.8625000000000003,-2.3398153316396115,Co6P8Pb2O28,mp-562742
2.3083,-1.139892142618666,Li4Ca3Si2N6,mp-567219
1.0749000000000004,-0.27314173178571416,Tl12Si4Te12,mp-568020
1.7751,-0.6758662775885416,K2Ta2Ag4Se8,mp-571288
1.5029000000000003,-1.3441227497656252,La40C16I72,mp-571432
1.0611000000000006,-1.8400062986197918,Gd6Cu2Ge2S14,mp-573114
3.0623,-2.0765850032495208,Cs24Ge12O36,mp-573150
2.914,-3.557156916666667,Li4Gd24B12O56,mp-581285
5.4876000000000005,-3.2284189127564105,Sr4Si8B8O32,mp-6032
2.5894,-1.9084793952193104,Cs2Sn1Cl6,mp-608555
1.2806999999999995,-2.7402427944270835,Eu4S4O16,mp-616175
1.1473,-2.7139059642157144,Sr4Fe2Cl2O6,mp-630641
0.3111000000000001,-2.6499092229545456,Li2Ca6Ru2O12,mp-6342
1.9777,-2.41977616385375,Re2F14,mp-643265
1.8808,-0.6097775986607142,Sn4Hg8S8Br8,mp-643460
1.6533,-0.15568489074674316,Cs6Mn2H10,mp-643706
1.7979,-1.1036861137711689,Te4P4Cl36,mp-644827
0.12400000000000012,-0.8215558333020836,Na3V5Se10,mp-675310
2.688,-0.7259516500313481,Rb4W12Br28,mp-680048
3.1144,-3.4383260966177565,K32Ti20P8O32F88,mp-684010
2.3058,-1.680131061310976,Bi60As4O100,mp-685318
3.5669999999999997,-0.99267750166,Cd2H8C2N4Cl4O2,mp-697033
1.0391000000000004,-2.1765348266155917,Na17W19O57,mp-706847
5.3386999999999984,-1.2086168369012702,P4H44N8O16,mp-721182
2.5048,-1.3604979435648612,Cd4H8Se4O20,mp-721583
3.5073,-1.4027018605149997,Na4H32O20,mp-733637
3.0513,-1.3758598069066672,K8H4I8Cl4O24,mp-733853
0.98,-2.063916517555556,Na8V2O8,mp-754829
0.7072999999999999,-2.248769851366885,Na2Cu2P4O14,mp-755492
2.8154000000000003,-2.7496340601136366,Ta4Pb4O14,mp-755663
3.0310000000000006,-3.5392428809375014,Ba3Zr2O7,mp-755895
2.5895,-2.9845949439702397,Ti4P8O28,mp-761010
4.3701,-2.6558417714068634,Na6Ga2B8O18,mp-766463
0.2622,-1.8548710891071425,Li4Ni3Sn5O16,mp-768603
4.4364,-4.151510378313334,Pr2O2F2,mp-769173
0.6247999999999999,-2.0086592374966683,Na4Mn2As2C2O14,mp-773119
3.2541,-2.593988806443266,Na4Mn4P4O16,mp-775855
1.9085,-2.6905694202464296,Na6V4P6O24,mp-776557
1.2304999999999997,-1.2015081488250003,K2Pt1S2,mp-7928
1.4573,-2.575719969250001,Ba4Li1Sb3O12,mp-7971
0.9684,-1.7260256741266666,Hg1F2,mp-8177
2.4170000000000003,-1.6540174977708333,Pr4B4S12,mp-862754
0.08429999999999982,-1.93308595869,Ho1N1,mp-883
0.9885,-1.2621074311538465,Hg12As8O32,mp-8975
0.5474999999999999,-0.5233494333333333,Li1Zn1As1,mp-9124
2.8769,-1.3494343282421877,Cd2Se4O10,mp-9178
3.0235,-2.2426868608409105,K2Al2As4O14,mp-9230
0.08879999999999999,-0.5555881280000001,Sr1Sn2As2,mp-9379
1.9739,-1.3816704265312512,K4Nb2Cu2S8,mp-9763
1.0846000000000005,-2.367973821477273,Nd4Pt4O14,mp-9765
1.848,-1.6883644710468744,Na1Sm1Se2,mp-999450
0.6438999999999999,-0.18133432999999946,Be2Ge2As4,mp-1009088
4.6896,-3.5130540305909093,Ba6Na2Y6Si12O40,mp-1019523
4.7086,-3.2616975671759247,Ca8B8O20,mp-1019560
2.7630000000000003,-0.5205268528566656,Li2Ge4N6,mp-1020059
2.4202999999999992,-1.1545227055022222,Sr8Mg24Si8N32,mp-1020587
4.7198,-3.104410632833333,Sr8Li4Be4B12O32,mp-1020647
1.2786999999999995,-0.14691709749999982,Ir2I6,mp-1025442
4.0867,-1.835450917293333,Yb2H2Cl2,mp-1070852
1.4445,-2.8820301197500005,Ba2Lu1Bi1O6,mp-1078394
0.0134000000000003,-0.8501326155555557,Ba3Zn2As4,mp-1079622
0.046899999999999935,-2.845780116,Ba2Sm1Os1O6,mp-1080470
0.8212,-0.9575272862413796,Cs2Ni2Br6,mp-1080570
0.03720000000000034,-2.8780714739682542,Ti3V2Cr1P6O24,mp-1101282
4.795299999999999,-2.4839677413333336,Tb2H4Cl2O4,mp-1102075
1.1395,-0.6558395961979162,Si4Pt4Se4,mp-1103261
2.6036,-0.8389809034628561,Yb2H8N4,mp-1103732
0.08420000000000005,-2.93786961925,Ca4Sc2Os2O12,mp-1105395
3.0580000000000003,-3.0697058979806666,K2Al1Ag1F6,mp-1111949
3.6313,-2.2091890623640458,Cs2Er1Ag1Cl6,mp-1113595
3.5245,-0.6348824823577774,Na1Ca1H6Ir1,mp-1180133
0.2936000000000001,-0.02337113883333302,Mg149Bi1,mp-1185557
0.1578999999999997,-0.028598480827083113,Mg149S1,mp-1185578
1.9369,-1.1936081582812506,Li4Cd2Sn2S8,mp-1188784
0.9650999999999996,-0.8207845017968749,Hf2Tl4Pb2Se8,mp-1189341
3.6144,-2.811356183854168,Ba4Mg2Ge4O14,mp-1190545
0.05350000000000055,-0.588255930416666,Li8Lu8Sn8,mp-1190624
2.3168,-0.6414295517963637,Li16Te2N4,mp-1190809
3.1638,-2.695834784312728,Y2Mo4O14F2,mp-1190839
3.9034,-2.4443493994278263,Bi7O5F11,mp-1190898
1.2219999999999995,-2.7523978125872746,La3Mn2Sb3O14,mp-1191110
0.3927999999999998,-1.813381661931819,Cd4Sb4O14,mp-1191189
1.6378,-2.3894409514499992,K2V6Ge4O18,mp-1192668
0.12670000000000006,-0.8952453176923078,Sr10Sn4As12,mp-1194401
2.546,-2.372886791187813,Na12Fe4S8O32F8,mp-1194982
0.0182,-1.3849311626979313,V12Sb8Cl96,mp-1195122
1.8312000000000004,-0.9597883181199298,Cs4Sn6Sb4S20,mp-1195304
2.1813,-1.8602874173930048,Ag8P8H8O28,mp-1195759
2.4605,-2.3712151397368433,Sr30I12O72,mp-1195789
4.5786,-2.8155079205921045,Li24Nd4B12O36,mp-1198049
2.8836,-2.4355471572208547,Rb4Mo4P4O24,mp-1198591
3.4730000000000003,-1.2746612361503693,Li24Ca12Si24N48,mp-1199122
2.9129,-1.6722987244911642,Ho6H40N8O49,mp-1199465
0.1339,-2.9949341542187504,Yb8V4O20,mp-1199587
5.4686,-0.5083014211495029,Li8Mg4B16H136N24,mp-1199747
2.7274000000000003,-1.9975115808398431,Sr2Mo4Se4O22,mp-1200408
3.7189,-2.950304479609524,Ba6In4P8O32,mp-1200796
1.9192,-1.0458099817077775,H14Au2N8O30,mp-1201215
0.8367,-0.2830338667968753,Tl12As4Se16,mp-1201566
4.261,-2.9427552958161765,K64Ca16Si48O144,mp-1202514
0.8145999999999999,-1.6682478475692704,Cs16Os8Cl40O4,mp-1202549
1.9437,-1.2399295117187503,Ba8Ga4Bi4Se20,mp-1203584
1.0432,-1.5604577418390804,Cs8Zr12B2Br34,mp-1203593
4.0125,-1.516461251782647,Cr2H40N4O12F10,mp-1203990
1.4702,-0.7074348895822558,Cs32Bi8As24Se56,mp-1204289
1.2654999999999998,-1.0160526135488521,Rb4Pd6S8,mp-1205388
0.048299999999999337,-1.0119305715079367,Eu6Al4P8,mp-1205409
0.06309999999999992,-2.180726765772667,K12Ti4Cl24,mp-1205449
2.4961,-1.0009925873209085,Tm2C3N6,mp-1205483
1.3335,-1.0271544460912696,Sr32Si8P32,mp-1208796
0.2621000000000002,-1.2179363258333336,Sm4Te4As4,mp-1208842
0.2203999999999997,-0.93952566775,Ni2Pt6O12,mp-1209897
0.9725,-1.7314638964429467,Rb4Nb24Cl60,mp-1210315
4.3085,-2.4170433800362976,Rb8Mg8Mo12O48,mp-1210378
0.31910000000000016,-2.8860270367500007,Li2Tb4Ru2O12,mp-1210924
1.9755,-2.90325137425,Gd4Mg2Pt2O12,mp-1212711
0.3929999999999998,-3.3619355827437416,Eu10P6O24F2,mp-1212781
4.5591,-2.036042162741379,Cs4Sr4Br12,mp-1213104
3.5702000000000003,-2.737476832058823,Dy4Mo6O24,mp-1213120
4.7629,-2.7052446569199504,Cs4P4O12,mp-1213232
1.7626000000000002,-0.8875364489942531,Cs2Hg3Ge2S8,mp-1213712
2.4166,-2.8661776699074077,Ti2Nb2Bi2O12,mp-1216838
1.8372,-3.1223526314285723,Sr4Ta1Fe1O8,mp-1218412
0.6672000000000002,-2.4200148367984693,Li4Cu4P12O36,mp-12185
2.1168000000000005,-1.9037559868206528,Sm6Cd1Ge2S14,mp-1219158
6.086,-0.4845842535819157,Rb1B1H4,mp-1219553
0.4478,-1.6049193903156649,Rb4Cr2Br4Cl4,mp-1219755
0.1952000000000007,-0.6652118158333339,Nd2Al2Si2,mp-1220161
5.3132,-2.9861877826117214,K2Ba2B2P4O16,mp-1223526
1.4804,-2.009383782092593,K2Ti1Te3O12,mp-1223905
3.4359,-2.0086622059275734,K3Na7Mg2H12S6N2O36,mp-1224548
4.351,-3.11371025894898,K4Mg6Zn4Si24O60,mp-1224589
0.16609999999999925,-1.053794377500001,Eu1Te2Pb1,mp-1225161
3.8869,-2.5555309816496297,K12Sr4Ni10P20O70,mp-1225542
0.3607,-1.1604909774999996,Dy16C8I24,mp-1225760
3.5882,-1.6632092513513148,Er12Si22N40O2,mp-1225896
1.2931,-0.4389972053061224,Cd3P1I3,mp-1226891
4.2575,-3.567854963229168,Ca2Nd2Al6O14,mp-1227115
1.0126999999999995,-2.0875827262499995,Ba1Sr3Co4O12,mp-1227831
4.6078,-3.023566609520408,Ba2Na2P2O8,mp-1227883
1.1878,-2.9637353061663334,Ba2In2Cu2F14,mp-1228148
1.1252,-1.2465789090949997,Ba10I1Br4N5,mp-1228784
1.9913,-1.8363555331424999,K1Au1F6,mp-12442
1.6292999999999995,-1.7081411632812502,Er4Cu4S8,mp-12454
3.4507,-2.0299477564739585,K4Pr4Se8O32,mp-14316
4.9488,-2.9250045710791266,Cs4Sr2P4O14,mp-14355
3.2292,-2.4909529576741067,K8Ge8P8O40,mp-14383
2.4174000000000007,-2.64322092619694,Na12V4P32O92,mp-14391
3.8928,-1.8491467846428569,Sr8Al16S32,mp-14424
1.9057,-2.4080604776286108,Tm12Au24F108,mp-14761
1.6771,-0.948278444383082,Rb4Nb2Cu2Se8,mp-15222
1.6302000000000003,-0.6102616210714285,Al1P1,mp-1550
0.03589999999999982,-0.23398871611111124,Li1In1Ge1,mp-16343
0.17070000000000007,-0.8076324550000002,Gd1Rh1,mp-1742
4.2713,-2.882019041866883,Sr4Fe4P8O28,mp-17881
3.4341000000000004,-2.485159977604108,Fe8P4O16F4,mp-18121
2.1315,-1.4871555623008037,Rb4Mn4O16,mp-18301
3.8778,-2.626811400237069,Rb2La2Mo4O16,mp-18473
1.8858,-0.3320644417756697,K4P4Se24,mp-18625
1.4763999999999995,-1.116514000379604,Cs2Dy4Cu6Se10,mp-18672
3.2569,-2.9794077242500014,Ba2Sr1W1O6,mp-18764
3.0358,-2.5541993262631584,Na4Sr2V8O24,mp-18975
3.4356,-3.6860322134210537,Y6W1O12,mp-19005
2.7605000000000004,-1.1683137036379314,Rb2Ni1O2,mp-19167
3.8165,-2.8395495956372545,Nd4Ni4B20O40,mp-19520
0.9313000000000002,-0.418937230423645,Rb4P6,mp-2079
2.9857,-2.9975260576785714,Nd4Al12Pb8O32,mp-21618
1.685,-1.0364878726488098,Ba8In16Se32,mp-21766
3.9594,-2.2960822570918364,Li4Ni4P4O16,mp-22417
0.3846000000000007,-1.9029576144642864,Eu4Si2S8,mp-22504
0.33309999999999995,-0.5576684641964279,Cr4Cd2Se8,mp-22605
1.1471,-0.7142558038660723,In2Ag2P4S12,mp-22661
2.8234,-1.1874010123055558,K4In4Br16,mp-22932
0.4221000000000004,-0.26155375500000017,Bi4Te7Pb1,mp-23005
1.8238,-1.247079898497816,Cs2Cu4Cl6,mp-23065
1.7985,-0.8559873332724367,Cd28P16Cl24,mp-23476
3.103,-0.28767726807199984,Na4Mg4H12,mp-23730
6.562100000000001,-0.10658758439600008,Si4H16,mp-23739
0.5830000000000001,-1.1613307355093052,Cu2H4Se2O10,mp-23955
2.4219,-1.4422663369855555,Cd8H12Cl4O12,mp-24015
7.5337999999999985,-4.4489910365175005,Y4F12,mp-2416
4.4593,-1.7904012776742189,Y4H20Se8O32,mp-24335
3.4455,-2.8143141932558136,Mg28Ge10O48,mp-27295
0.056200000000000035,-2.3458837247161903,Sb6Br4F32,mp-27318
0.12059999999999993,-1.3392355805893508,V2P2Cl18,mp-27523
0.5597000000000001,-1.5087287496822224,Ti2Br2N2,mp-27849
1.5457,-1.8077011652853332,Ca1Au2F12,mp-28153
0.889,-1.4776185745500006,K3Br1O1,mp-28166
1.5454,-0.8976935814285711,Ba2Al4Te8,mp-28505
4.3473000000000015,-0.8700712065577787,Pb2Cl4O12,mp-28513
1.8019000000000005,-1.212368103956,Ga6Bi10Cl24,mp-29075
1.6525999999999998,-3.309902815793333,Ba4Pd2F12,mp-29794
4.2153,-2.160473525778333,Tb3Al9Cl36,mp-29844
0.8347,-0.846154948422414,Rb10Au6O4,mp-29920
2.3566,-1.741375596793479,Cr4Bi12O30,mp-30205
3.015,-0.2140288283377778,B40H48Br8,mp-30977
0.04300000000000015,-0.5242452316666665,Ba2Zn2Sn2,mp-31148
3.1178,-2.9703107838888894,Nd8Te4O24,mp-31318
3.8930000000000002,-1.9894813050000009,Re2Ni1O8,mp-32311
3.3954,-2.0296826392522327,Te12P8O44,mp-3764
4.1074,-2.6247448096666672,Na6B6O12,mp-3889
6.4809,-3.700330496348888,Li2Zr1F6,mp-4002
3.05,-2.20812400653125,K16Ga16O32,mp-4066
2.4516,-1.169654585197917,Na8Ge4S12,mp-4068
0.15500000000000025,-0.22877040750000036,Tl1Sb1Te2,mp-4573
2.8977,-2.7942703089553795,Cs2Tl1Fe1F6,mp-504603
0.02149999999999963,-0.6226778801754375,Ho8Ni2B28,mp-505720
1.663,-0.7899558873976297,Cs4Ga4Se12,mp-510283
1.6639000000000002,-1.5433021517079748,Cs4Li2V2S8,mp-510338
2.9577,-1.4931417966346152,Gd4I12O36,mp-510661
0.008699999999999986,-1.625779743147692,K6Mn4O16,mp-510713
5.251,-3.3690419569642858,Li4Al20O32,mp-530399
2.7002999999999995,-2.5684612107857143,K8Fe4Sn4P12O48,mp-532656
3.7996,-2.383059654221848,Na6Mg6In2S12O48,mp-532701
0.9385,-1.0829053107499995,V4S16,mp-541155
0.6989999999999998,-0.4812178659642861,K24Al8P16,mp-541684
5.2653,-2.793679380968619,Cs4Al4B4P8H4O36,mp-542129
1.4191,-1.2756426586654548,Ga8Te8Cl28,mp-542662
2.1448,-2.3120274113437502,K1V1S2O8,mp-545469
4.5488,-3.3441633357142853,Ba1Be1Si1O4,mp-550751
1.7783999999999998,-1.8370501315262509,Na40Li8Mn16O64,mp-554028
2.6786000000000003,-3.523379465555556,Ti4O8,mp-554278
3.4151,-2.4929870509868435,Nd4Te4W4O26,mp-554313
0.7010000000000005,-3.365422224642859,Eu8Si4O16,mp-554546
2.02,-2.7133121632954555,Ta4Cd4O14,mp-5548
1.1821,-1.5322221138456242,K1Mn1Se2O8,mp-555354
3.5263,-3.0253472352314814,Ba12Er4Ga8O30,mp-555481
1.8455,-1.236725997678571,Ba4Sn4Hg4S16,mp-555954
3.6611,-2.8478831245277783,Na12Y4B8O24,mp-556039
3.1032,-2.3627619585906943,Ni12B28Cl4O52,mp-556141
0.7955000000000001,-2.6151951405823533,Ba7Ca2Mn5O20,mp-556409