band_gap,formation_energy_per_atom,full_formula,task_id
7.2568,-1.5646013618733334,H14N2F8,mp-28123
1.0387,-0.5476200365714289,K8Ge4Te16,mp-28126
1.9803,-0.8816715048472226,Na32Ge8Se32,mp-28292
0.3429000000000002,-0.5185792624506583,Cu12As8S18,mp-28717
3.1127,-1.3953717543327702,Al26Tl6S42,mp-28790
0.1257999999999999,-1.1053240074999997,Y32Ru8I40,mp-28840
1.4712,-1.9735770391666656,Sb4W2O12,mp-28918
1.4765,-1.1491847359702565,Ba10Ti4N12,mp-28926
1.3081,-0.18607885491230897,Bi8P12Se36,mp-28975
2.452,-1.994466959039353,Ti2Se4O12,mp-29260
1.5013,-0.7890080509285714,K12Bi4Te12,mp-29379
1.4289999999999998,-0.9333863687799336,Cs4Bi12S20,mp-29531
2.4272,-1.3341545835949995,Na1N1O2,mp-2964
0.040399999999999985,-0.9369536302380964,Zr5P7Pd9,mp-29932
0.6713999999999998,-0.2566991308695656,Na10Ca1Sn12,mp-30252
0.7424,-0.20175685249999956,Cu4Te8Br4,mp-31036
1.0761,-1.7259030456079998,Nb2Cl8,mp-31040
0.8547,-0.2733615938520874,Rb4Pd2Se32,mp-31292
1.5393000000000008,-2.0394698729062504,La16Se24,mp-32798
2.3426,-1.3781878465217237,Cs3N3O6,mp-3288
0.33119999999999994,-0.22994893800000046,Bi2Te3,mp-34202
0.6309999999999993,-0.2840439612500001,Tl9Sb1Te6,mp-34292
7.2565,-2.78635702563492,B1P1O4,mp-3589
5.305300000000001,-2.8292539513840995,Cs4B12O20,mp-3977
2.177,-1.4841105745238103,Tb8P8S32,mp-4672
3.2909,-3.716633935833334,Gd2Ta2O8,mp-4875
0.4941,-0.6205337422115382,Nb4Pd6Se16,mp-504898
0.3959999999999999,-0.40334845218750015,Sn12Te12Ir8,mp-5142
1.4708,-0.2770596636785712,K12As44,mp-541000
0.13260000000000005,-0.9664900395887214,Rb8Cu8Sn8S24,mp-541407
5.4879,-1.8234545550279424,K4H20S8O36,mp-541415
0.3349000000000002,-0.5906300699038459,Ta4Ni6Se16,mp-541509
2.9698,-3.1337300853061225,Ta8P8O40,mp-541740
3.4060000000000006,-2.6637790897500007,Ba2Zn1W1O6,mp-548615
1.3331,-2.600914095083664,Na4Mn2P10O30,mp-553997
2.8040000000000003,-2.8020124288023807,K12Nb4P8O36,mp-554572
3.0336,-2.2843621849395404,Rb6Sb3Cl9F6,mp-554605
1.5334000000000003,-3.1309148046425004,Mg1Cr1F6,mp-554955
2.7834000000000003,-2.1244021316887505,Si1Hg3S2F6,mp-555194
6.0893,-3.5903944381485005,Na5Zr2F13,mp-555272
4.9087999999999985,-3.1131183954537027,Na4Sc4B8O20,mp-555447
2.476,-1.14521785017715,Rb4Ag4N8O24,mp-555526
3.1895,-1.7883569274999995,Cd2Te2Mo2O12,mp-555560
3.3391,-2.246312007611608,Bi2P2Pb2O10,mp-556878
1.661,-1.8515790052864591,Pr6Cu2Ge2S14,mp-556962
2.8338,-2.555662649375,Li8Cd4Si4O16,mp-557293
4.7265,-2.7937761231410265,Li8Ca2B4O12,mp-557467
1.0302000000000002,-1.393619160194444,K2Ba8Sb6O2,mp-557761
5.1689,-2.7014427414553572,Na4Li8P4O16,mp-558045
2.5743,-1.8364111783928585,Pr6Si4S16I2,mp-558259
3.826000000000001,-2.4480269527023797,Na8Li10B6O18,mp-558455
2.9656,-3.027963133974965,Rb1Mn1F3,mp-558749
1.8981999999999992,-1.8914561277864583,Er6Cu2Si2S14,mp-558980
5.1215,-3.184845184639612,K4Lu4P8O28,mp-559395
2.3886000000000003,-2.780571519501667,Ba4V4Cl4O12,mp-559481
3.0838000000000005,-2.4587293558497723,Nd8S6N2Cl6,mp-559514
2.7772,-2.2188209592130685,Na16Mo4S12O56,mp-559561
3.905,-2.5821208712000008,Na2La2C4O12,mp-559868
1.2763000000000002,-0.9221252349350649,Nb4P8S32,mp-559923
2.9996,-3.31778446875,Ca16Nb16O56,mp-560040
7.004199999999999,-3.7564474108393218,Rb2Na1Al6F21,mp-560570
3.5262,-1.9897395238876925,Si4Pb16Cl16O16,mp-561110
1.4468,-1.9082392574404083,Hg8P4O12F4,mp-561472
2.4712,-2.1210518764829547,K8Cr4S4O28,mp-561541
0.3380000000000001,-1.9884589055654776,Tl8Cu16P16O56,mp-566937
1.3638000000000003,-0.3616723233823528,Sn4Hg24As16Br24,mp-567185
0.06190000000000051,-0.790333513051948,Ca3Zn2Cu2P4,mp-569617
3.5668,-2.4053447335126443,Ba24Zn4In8Cl80,mp-569635
1.4341,-0.6546128395339186,Rb8P4Se18,mp-569862
1.6074,-1.2115425536525002,Na16Au16Cl64,mp-570193
0.8444,-0.6408551081898151,K4Ag4Sn2Se8,mp-570887
2.3942,-2.149564302227778,Pr12C4Cl20,mp-571490
2.9081,-1.4432273766187156,Cs6Al3N15O45,mp-572149
0.5947,-0.4392218347708337,K12In8As12,mp-583615
2.6622000000000003,-2.6453959720454545,Sr6Mg2Pt2O12,mp-6064
1.8788,-1.5191241039770826,Sr12B4C4N4Cl8,mp-616577
2.2306,-1.3780395069163085,Cs4Nb2Ag2S8,mp-623028
1.7666000000000002,-0.4371555560543766,Cs4B24I24,mp-640353
2.0868,-0.5309569209375006,As8S12,mp-641
0.7725999999999997,-1.3316659700130211,Gd6Cu2Si2Se14,mp-641576
3.3024,-0.4652725750242363,Rb4H8Pt2,mp-642735
2.7374,-0.4805154132466664,Sr2Mg2H8,mp-643009
1.8152000000000004,-0.5068896227828569,Sr4Mg4Ni4H16,mp-643293
2.4635,-1.4614382101574996,Cd2H2Cl2O2,mp-644222
1.0279000000000007,-0.07356334257142895,P112Pb20I8,mp-646669
2.1843,-1.6379372562687502,K4Fe4Se8O24,mp-654225
0.9022,-0.6535999462500003,Li14V2As8,mp-673833
3.4344,-0.5864598499029778,Cd4H96C16Br24N48,mp-707501
1.3093000000000004,-0.32930257603571444,K3Cu3P2,mp-7439
2.8558,-1.5816753690877488,Cs4Fe4H96S8O80,mp-746702
0.6433,-2.221768320314,K4Hg4F12,mp-7483
2.838,-1.1607877991666669,Ca1Pb1I4,mp-753670
0.036700000000000184,-3.6651192506578942,Ho6Re1O12,mp-753766
3.9742,-3.181941311375,K1Tm1O2,mp-753774
3.764,-2.1994365335494503,K6Ni2P2C2O14,mp-754510
4.1309,-2.835307280500001,Yb4C4O12,mp-755213
2.3149,-2.2512624660529563,Cs12Tm4O12,mp-756459
0.9457999999999998,-2.0523693287500007,Sr8Tl8O20,mp-757407
1.6006000000000002,-1.9714512921250005,Li40Co8O32,mp-760147
0.8507,-1.3754452128756165,Rb4I2O1,mp-760417
1.4232,-1.6448943360416668,Li4Pd2O6,mp-760483
0.9501,-0.3162625915401784,Tl3As1Se3,mp-7684
2.6041,-2.0643807946327257,Li12Mn2O8,mp-770533
2.6387,-2.13797166425,Li2Sb2O6,mp-770932
3.8063,-2.44176888140625,Er2Re6O24,mp-772838
2.6054000000000004,-2.2792281508750003,V8Sn4O28,mp-773455
2.4458,-3.2232455133750006,Ba16Li4Nb12O48,mp-774715
2.8191,-2.6678302675833327,Ba8Sb4O18,mp-801028
3.0901,-1.8674193099642853,Na12Sb4O12,mp-8076
0.9734,-2.8528288649600007,Ca2Pd2F8,mp-8161
2.9396,-1.4783466077259997,Li2N2O6,mp-8180
0.7324000000000002,-2.534221502226001,Gd2C1F2,mp-8301
3.4746999999999995,-2.119910882490421,Cs4Li4Ge2O8,mp-8313
1.0229,-2.744223355122769,Li16V6P16O58,mp-849522
1.8989,-1.6406913004454025,Rb12In4O12,mp-849527
0.7737,-1.6157386246425005,Pd1Pt1F6,mp-8547
5.3052,-1.244245968716522,Mg1H8Cl2O12,mp-865188
0.0007000000000001451,-0.19189257599999987,Na4Mg2Sn2,mp-865625
0.10150000000000016,-0.63258814375,Ba2Sn1Hg1,mp-867912
4.6287,-3.198206719675925,Sr8Li4Sc4B16O40,mp-8796
0.09250000000000023,-0.2496996875000006,Nb1Ga1Fe2,mp-977410
0.21910000000000007,-1.2209201178472224,Ag8Ge4O12,mp-983589
4.041600000000002,-2.613017001047333,Li1Tl2In1F6,mp-989551
0.05160000000000009,-2.692768703032551,Ca4Mn8P8O36,mvc-10115
5.1483,-3.2435415500487026,Ba8P8O28,mp-1019530
5.4195,-2.9747905524974643,Cs4Be16B12O36,mp-1019718
4.877000000000002,-2.694929851502748,K6Li2P4O14,mp-1019794
1.6586,-1.0068863142159097,Na12Zn2Se8,mp-1024047
0.6331999999999995,-0.7356711227083336,Pb2S4,mp-1025039
4.7125,-2.845231887207093,Rb2Zn1F4,mp-1025286
2.7095,-0.5775384949519996,Li8Ge4N8,mp-1029776
0.4965000000000002,-2.240196721799569,Sm20S38,mp-10534
0.3109000000000002,-1.7632544022933334,Eu2H2Cl2,mp-1070860
1.5932000000000002,-2.711905584015556,Na2Tc1F6,mp-1078535
0.24529999999999985,-1.9973870702974998,Ba2Zn2As2F2,mp-1079320
9.999999999976694e-05,-0.29653170015086205,Cs1Zn4As3,mp-1084778
0.5385,-1.2492172183333334,Ba2Gd2Cu2Te6,mp-1095273
2.7485000000000004,-1.4731922746428572,Ni4As8O16,mp-1096784
1.1674999999999995,-0.9982789466666672,Zr1Sb1Rh1,mp-1100415
1.6178,-2.442851897997088,Cs2Ce1Cl6,mp-1101094
0.2805,-1.42004096953125,Er4As4Se4,mp-1102033
3.2925999999999997,-1.1506518662313157,Ni3Se4Cl2O10,mp-1105005
0.9994,-0.4250575644960937,K2Cu2Pd2Se10,mp-11114
0.9808999999999996,-0.4252268897891973,Rb2Cu2Pd2Se10,mp-11115
3.1517,-1.4610153626913795,Cs2Na1Y1I6,mp-1112137
4.5375000000000005,-2.899805047076069,Cs3Bi1F6,mp-1112606
1.2319999999999998,-2.5061320375575007,Na1Fe9Si6B3H2O31,mp-1121875
4.4276,-2.330335764458128,Cs1Li1W1O4,mp-1178391
3.3045,-0.6080583095800001,Ba1Na1H6Ir1,mp-1182061
0.1107999999999998,-0.010300688049999849,Mg149Re1,mp-1185583
2.608,-2.6776167917500016,Ta2Mo2O11,mp-1186878
3.2649,-2.2493358001876267,Rb4Ga4Ge6O20,mp-1186921
0.021300000000000097,-0.007889555802298673,Rb1Mg149,mp-1187343
0.4678999999999998,-0.018790641466666404,Sr1Mg149,mp-1188044
1.2374,-1.2142548557812507,Zr2Tl4Pb2S8,mp-1188093
0.7965000000000004,-0.5313611867968748,Mg2Cu4Si2Se8,mp-1188827
0.9847999999999996,-0.1970259550000001,Te12Ir2I6,mp-1188875
3.1717000000000004,-1.5109655175287358,Rb2Hf4Br18,mp-1190209
3.0638,-3.1172002155208336,Al8Cd2O14,mp-1190488
2.3974,-1.254210003750001,Bi4I4O16,mp-1191266
0.7339000000000002,-0.2059289800714288,K4Ge12As12,mp-1192374
3.1731000000000003,-2.320709638034482,Rb4Y4Te8O24,mp-1194706
2.9749,-2.1483418451111107,Na10Li2Mo18O60,mp-1195001
3.6427,-1.84347255548,Ba4Sn4H24O24,mp-1195130
0.2259000000000002,-0.3498090724016801,Ag24Sn14H32Se44N8,mp-1195193
1.3706,-0.5372223676464642,Rb16Ge4P16Se48,mp-1195251
2.7687,-2.528412770795456,Sm4Fe4Ge8O28,mp-1195316
4.7196,-2.809000257583,Li4Sb8F28,mp-1195657
1.4655999999999998,-0.9241474547619044,Ba18Al18P30,mp-1196964
3.9616,-1.9108430361422413,Ge2Pb2S12O42,mp-1197913
1.3022999999999998,-0.8716996920793104,Cs48Sn32Ge4O16,mp-1198905
2.2504,-1.433727002642858,Na4La4Ga16S32,mp-1199865
1.8641,-0.06680682612176758,Cs28Na4Si32,mp-1199908
1.4041,-2.6390559540337635,Cs6Nb18Te8O64,mp-1201443
1.3015,-0.8437115613119612,Cs12As4Se16,mp-1201774
3.9398,-1.6529170146751726,Cs4Mn4H16Cl12O8,mp-1202031
0.14089999999999994,-2.402981004169207,Nd4Nb4S14O60,mp-1202258
4.7688,-3.78454223624436,Tm16B4Cl4O28,mp-1202632
5.3962,-3.2489590799377286,Sr6B12O22F4,mp-1202821
2.0549,-1.5430054387499998,Cd2Te2Pb12O20,mp-1203009
2.2479,-2.7067573656031443,Rb8Ti4V12P12O72,mp-1203774
2.7394,-2.7766386676085717,La8Mo8Cl8O32,mp-1204388
3.4297,-2.0542270961375,K4Sn2S12O42,mp-1204525
2.9872,-2.7300160475,Ta4Sb4O16,mp-1205391
3.5970000000000004,-2.6622701809277145,K8Fe8P8O28F8,mp-1205435
3.4826,-3.62589502625,Sr2Lu1Ta1O6,mp-1205553
3.1607,-1.5434972736666666,Yb2In2Br6,mp-1205559
0.7564,-0.9577690084444446,K2Pd1Br6,mp-1205761
1.6286,-1.9438086270060004,K2Na1Cr1Cl6,mp-1206266
0.11990000000000035,-0.22444395847222207,Nd1In1Cu4,mp-1206278
2.2374000000000005,-1.6710612079880005,Pb4I2O2F2,mp-1206410
0.5109000000000004,-2.5548734955833323,Ba2In1Sb1O6,mp-1206536
1.8351,-2.9925021624279173,Tm4Se4F4,mp-1207668
3.3955,-2.8560314982386363,Sr6Li12Nb4O22,mp-1208770
1.3221,-1.7805193879519998,Sr4Au8F48,mp-1208951
7.425000000000002,-3.896989299720537,Rb2Y2Be2F12,mp-1209088
4.9234,-2.951340068681122,Na24Pr8P16O64,mp-1210844
4.9449000000000005,-2.969170680645408,Na24Tb8P16O64,mp-1211011
4.3824,-2.596074598300001,K2Er2C4O12,mp-1211628
2.7439999999999998,-2.224292865666667,K2Cr2Mo4O16,mp-1211679
3.2103999999999995,-3.4212158881250003,La12Tm8Ga12O48,mp-1212025
0.01670000000000016,-3.4508479399312497,K8Eu4F20,mp-1212263
3.3264,-2.6082586179166665,Er4Mo8O30,mp-1212977
3.1758,-3.806837767125,Gd12Sc8Al12O48,mp-1213017
5.039,-3.3445838425940995,Cs4Al4Zn4F24,mp-1213699
2.2256000000000005,-1.254596842537083,Ca12B4C4Br8N4,mp-1214049
1.5307999999999993,-2.2711336336111114,V2Cr2Sb2O12,mp-1216355
1.6232999999999995,-1.6259278076562502,Ba4Sn4S8,mp-12181
5.3466000000000005,-1.5639400196869044,P2H12N2O8,mp-1220029
2.7354000000000003,-2.758837411156522,Nb2Sn12O2F30,mp-1220683
2.6091999999999995,-2.1841606750312503,Na1La1S2,mp-1220714
3.1152,-3.533465426372023,Na1Pr9Si6S2O24,mp-1221010
3.3551,-2.303909190952381,Li6V6Zn6O24,mp-1222477
1.9462,-2.110632279864131,La6Cd1Si2S14,mp-1223157
0.3226,-1.1109179640315123,K4Nb8P8S48,mp-1223649
0.8713000000000002,-1.7037100797750009,K2V1Co6Cu2As5O24,mp-1223921
3.4628,-3.2604211848163214,Cs2Mg2Fe2F12,mp-1225928
2.9165,-2.564743225967433,Cs2Zr1W3O12,mp-1226158
0.6429,-0.216218214584822,Cr1Cu1P2Se6,mp-1226296
0.2439,-0.1865944594380588,Cs8Sn42Hg4,mp-1226308
1.1991,-1.1631663783267767,Cs4Ta16P12S76,mp-1227943
0.8888000000000007,-2.0999660317361117,Ba2Co4Sn8O22,mp-1228162
0.36270000000000013,-0.4807189808333341,Al1Re1Si1,mp-1228809
2.4559999999999995,-0.4372321174399998,Zn6W2N8,mp-1245967
7.2193,-4.440871290865456,Ba1Er2F8,mp-12803
2.8746,-2.541944831019737,Al32Pb36O84,mp-13875
5.3058,-3.018472609738713,Cs2Na1In1F6,mp-13898
3.7147,-2.7689581308925004,Zn1Sn1F6,mp-13903
3.6513,-1.8497017525595247,Ba12Al24S48,mp-14246
3.6113,-1.7923940067857147,Ca8Al16S32,mp-14422
2.4019,-1.3223986358839284,K6Ge2S6,mp-14434
1.3409,-0.7909142824545458,Na12Mn2Te8,mp-14782
2.8263,-1.207181529617457,Rb6B6S12,mp-15013
4.7806,-3.4602489060714285,Li4Tm4Si4O16,mp-15066
6.2874,-3.133683589547333,Li18Ga6F36,mp-15558
4.0878999999999985,-0.8045540585078903,Cs12P24N44,mp-16108
0.03440000000000065,-0.6363037800000002,Yb8Cu16As12,mp-16668
1.4034,-2.740038301416667,K2Nb4Fe2O13,mp-17508
3.715,-2.605685026287142,K4As4O4F16,mp-17539
4.7301,-2.633824342033525,Cs1K1Na2Li12Si4O16,mp-17718
0.8224,-0.9583512764083324,Ca12Ga2N10,mp-17875
1.2241,-0.8173659068392857,K8W4Se16,mp-18138
1.894,-0.7941848666875,K8Al8Te16,mp-18347
6.2458,-3.3338398581221433,K2Be6Zn2F18,mp-18509
1.8229,-0.4679607488235291,Sr6P28,mp-1853
0.698,-2.0673363996971426,Mn6O8,mp-18759
3.616000000000001,-2.647880814166668,Li2Pr2W4O16,mp-18932
0.40830000000000055,0.0,Te3,mp-19
3.6492,-3.14861011,Ba4Fe4Si16O40,mp-19165
2.6112999999999995,-2.6708572305459994,Na2Nd2Mn2W2O12,mp-20156
0.10210000000000008,-0.13507315343749934,Cu6Se4,mp-20683
0.2366999999999999,-0.9380360641904768,Eu3P6Ir6,mp-21386
0.9985,-0.7926467012552085,Na1In1Se2,mp-22473
2.3386,-1.0462133351111111,K4Te2Br12,mp-22963
2.5354,-1.8666963683610729,Rb2Sn1Cl6,mp-23059
1.9045,-1.9673200747222224,Bi4W2O12,mp-23329
5.5415,-1.2037129072933332,K4Cl4O16,mp-23526
3.8686,-0.9773246057123808,Sr7H12Cl2,mp-23827
0.3583000000000001,-1.5687065566724994,Cu2H4S2O10,mp-24522
3.9255,-2.4007970755893244,Rb2Zn4P4H2O16,mp-24683
2.5979,-0.24346162650818184,Na10Al6H28,mp-24822
1.3197,-2.6466562595535708,V2P4O14,mp-26728
0.9757,-0.5967320412255559,Au6Cl6O6,mp-27265
5.6715,-3.7844795492238053,Rb10Zr8F42,mp-27316
0.4831999999999992,-0.3686306536734695,Re8P20,mp-27736
7.3896000000000015,-1.780510874111818,H12O2F8,mp-28003
1.6871,-0.3430225337500001,Tl4I12,mp-28329
2.0398,-1.0512271703448277,Cs4Hg2I8,mp-28421
0.2487,-1.89461138080625,K4Pd8F20,mp-28758
6.0963,-3.934122747543334,K4Sc4F16,mp-28778
1.4712,-0.6767667753333335,Ag20Bi4O16,mp-28812
0.2272999999999996,-0.4928176032142854,Nb8Si4Te16,mp-29072
0.7992999999999997,-1.1526580650675005,Os1Cl2O1,mp-29133
0.13280000000000006,-1.8584857411472,Lu1Nb6Cl18,mp-29339
5.2511,-2.698008186492857,Na4Te4F20,mp-29355
3.9251,-1.355244226599999,Ba2Si14N20,mp-29703
3.4338,-2.4622184574530435,Co2As8F36,mp-29758
1.1701,-0.2662866249553572,Hg12Se8I8,mp-29955
2.7119,-1.3261653179077382,K12B4S12,mp-29975
0.06329999999999991,-0.289672553333333,Co1Br2,mp-30033
0.6759,-0.2585261245652176,Na10Sr1Sn12,mp-30253
1.3815000000000004,-1.8155641300601388,Nd8Se6N4,mp-30292
1.1466,-2.0561272201785714,Er4Cd2S8,mp-3041
0.016300000000000203,-0.6610632300000011,Gd3Tl3Pd3,mp-30692
3.3419,-2.3240030936029417,La4Te8O22,mp-31249
3.4544999999999995,-3.8504480848863647,La6Ta2O14,mp-31415
6.9537,-3.564296131314,K1Mg1F3,mp-3448
2.8894,-0.6581928571724998,Br2O4F2,mp-36262
3.9783,-1.732544923737246,P8S8O12,mp-3667
1.0983999999999998,-3.358205386750833,Gd2S2F2,mp-3799
4.0713,-2.4158918666149067,Zn3Ga1B6P1O12,mp-39215
3.5804,-1.0830135371275,Ca1C1N2,mp-4124
2.6415,-2.979079371022728,Pr4Sn4O14,mp-4394
0.3136999999999999,-0.9054430166666664,Dy1Ni1Sb1,mp-4510
5.3904,-2.846713876410715,Nd4P20O56,mp-4736
1.2325,-1.8045346464062504,La4Cu4S8,mp-4841
1.6058,-0.7851919689375002,Sn4Ge4S12,mp-5045
3.9829,-3.0804759965300006,Er2H2O4,mp-504801
2.2075000000000005,-2.4474526466355355,V4P12H8O40,mp-504844
0.4868999999999999,-0.33516031249999995,Nb8Te32I8,mp-505088
1.5801999999999996,-2.4793675455357147,Ca4Lu8S16,mp-505362
0.5740000000000001,-2.34761887920759,Cu4P16O44,mp-505436
0.026199999999999782,-0.5285087287933332,Ba20Co20N20,mp-505765
3.4156,-2.3580522091758245,P4Pb6O16,mp-505799
4.4577,-4.1238201667289465,Gd4Zr12F60,mp-530695
1.4434,-1.185992824072286,Fe4P4Cl32,mp-540760
1.029,-0.9178444867857142,Nb6Tl4Br18,mp-541709
1.4575,-0.9302947094311226,K12La4P8Se32,mp-542079
1.4006000000000003,-2.376026313125,Lu1Bi2Br1O4,mp-545847
1.3667999999999996,-2.2948257506250007,Dy1Bi2I1O4,mp-546266
1.9142,-3.465217980238095,Sr2Ti1O4,mp-5532
5.7974,-2.797698293839745,Na4Li4B16O28,mp-553926
2.7183,-3.101727677235,K4Gd4C4O12F8,mp-554005
3.354,-2.965491577885878,Rb1Ta1P2O8,mp-554412
1.9285,-2.57974933996,Li2Co2F8,mp-554689
2.9904,-2.2054319071875,Y4Te10O26,mp-554852
3.4408000000000003,-2.680667699077,Sb16F64,mp-556425
3.258,-2.3285979184249994,Na12Al8As12O48,mp-556676
3.6757,-2.882739774886667,Nd10As8Cl6O24,mp-556908
1.6451999999999996,-1.1647743596262763,Na4Nb8P4S40,mp-557436
1.046,-3.458608143571112,Sr4Cu2F12,mp-557552
4.0927,-1.5255273893892194,Zn16Se8Cl16O24,mp-557746
1.9511,-2.0417998521483334,B2Cl2O4F8,mp-557856
2.7508,-2.7519317090371422,Tb2Mo2Cl2O8,mp-558223
3.8215,-3.0496948023128563,Sm4Mo4O16F4,mp-558638
0.4746999999999999,-2.4132038224305554,Ba10Ru4Br4O18,mp-558725
4.7856000000000005,-2.9266698404898626,Cs2Rb1Bi1F6,mp-559695
3.8567,-2.3370599313950886,Sm4Se6O18,mp-559755
5.6915,-3.887298362036667,Ba8Ta8F56,mp-559835
3.9852,-3.0003710111052717,Pr8Se6O20F12,mp-560263
3.8065,-3.21719291296875,Li4Ta4Si4O20,mp-560297
3.2444,-2.3622950755223497,Rb12Na4Ti4O16,mp-560476
2.244,-2.2642063742445058,P6Ir2O18,mp-560585
1.8658,-2.025060310616,Sb4I4Cl8F24,mp-560789
1.7546999999999997,-1.9097764569531257,Y6Cu2Si2S14,mp-561173
1.2081,-1.656088921575123,Rb16Te32O92,mp-561228
3.3231,-2.220874897688334,Sb16O16F16,mp-561533
0.1036999999999999,-3.3178042137387123,Cs6Na3Ti3F18,mp-562050
2.3503,-1.0768373681571075,Cs4P4Pb4S16,mp-562569
2.5548,-2.126668677528736,Rb1Fe1Mo2O8,mp-563010
0.4675000000000002,-1.1515050815,K4Pr12Te32,mp-567710
5.4991,-2.9940888565873016,Ca8P16O48,mp-5680
0.7545999999999999,-0.1828375828921568,Ag40Te16Br12,mp-568392
1.2570000000000001,-1.8243797425658832,Na4Al12Ni4Cl48,mp-568785
1.905,-1.0590521956517858,P24N8Cl96,mp-569386
0.2397,-0.7634587674563633,Ba4Ca16Cu8N16,mp-569603
0.4035000000000002,-1.3742908807249998,Na1La6Os1I12,mp-569905
1.5756,-1.1421957259617648,Bi48Pt8Cl80,mp-570417
3.2957999999999994,-2.6081469111808246,Na16Mn12P16O60,mp-578949
0.4283999999999999,-0.33418521716362404,Cs28In16Bi24,mp-581533
0.4060999999999999,-1.7394676135714282,Cd4Sn2O8,mp-5966
0.16080000000000005,-2.778835345500001,Ba4Nd2Ru2O12,mp-6200
3.5073000000000003,-3.10431625125,Ba2Tb1Sb1O6,mp-6265
3.8868,-1.7308744535677791,Re2H6O10,mp-626799
4.0866,-0.4756077269344061,Rb2H6Pt1,mp-643101
0.8373000000000002,-0.366803684318182,K20As12Pb12,mp-646920
0.7387999999999999,-0.861442163118207,Ba6Bi12Pb2Se26,mp-669415
0.3846000000000007,-1.1463017104545448,Tb7Cu3Te12,mp-676524
5.8263,-3.1418127674450553,Ca4Be8P8O32,mp-6772
2.251,-2.9548575378227286,Rb2Na1Nb6P3O24,mp-677731
0.2885999999999997,-2.5070900243629723,Ba8Mn8O21,mp-694888
3.7669,-1.7418443476904857,K4P1H5Se3O16,mp-695043
0.8734,-0.9368940434758825,Sb4H28Br24O12,mp-695843
4.8406,-0.8350449721975902,Mg2H80C20Br4N40O20,mp-707720
6.8954,-3.740798123955379,Cs1Ca1F3,mp-7104
0.6339999999999999,-2.0220846837085724,Li2Mn2Fe2O8,mp-753432
4.3086,-1.465894021698,Li4H8Br4O4,mp-754153
1.5984,-1.5265952001532566,Rb8Pb2O8,mp-756746
0.6364999999999998,-0.7153186774999996,Li6As2,mp-757
3.0504,-3.0579534938750017,K1Gd1O2,mp-757021
2.4969,-1.7980860853876468,Ba4Tl2H14O14,mp-757586
3.4540999999999995,-3.0087010732112067,Rb2Sc2O4,mp-7650
2.8001,-2.0329592659306512,Fe4B4P8H20N4O36,mp-766957
3.7817,-2.369350553011905,Na4Ga2P2C2O14,mp-768120
1.2568,-1.4353307715357146,K4I2O1,mp-768368
5.9635,-2.8218785627757352,Lu4S6O24,mp-768453
2.7058,-3.327526147168367,Ta9P1O25,mp-770481
0.7381,-2.4438115310171584,K12Cu4B8P16H12O68,mp-773133
4.1378,-3.6644768190000008,Sm12Al20O48,mp-780370
0.7109000000000001,-0.5955942208571425,Sr1Cd2P2,mp-8277
0.7470000000000001,-2.0674174618721466,V18Ag7O48,mp-863411
2.1239000000000003,-1.9383588921500001,K1Zn4Sb3O12,mp-863678
0.7288999999999999,-0.04834136666666685,Ge6As6,mp-9548
1.0487000000000002,-0.7011245568749995,Bi4S8,mp-971673