band_gap,formation_energy_per_atom,full_formula,task_id
6.0792,-4.3191844433925,Sc1F3,mp-10694
4.3167,-2.2378777568425003,Sr2H2Br2O2,mp-1080045
0.961,-0.4237707565000002,K4Bi2Au2,mp-1084770
3.0085,-1.4480295142413793,Cs2Li1Y1I6,mp-1112663
3.5958,-2.5299997426615333,Cs1K2Fe3P4Cl1O14,mp-1190639
4.1911000000000005,-1.6744660588858755,Cs1Mg1As1H12O10,mp-1193046
0.15520000000000025,-0.5293422079999994,Er8Zn10Ge12,mp-1192836
3.3002,-2.0959194030726307,K4Pb6C6O18F4,mp-1194624
2.4403000000000006,-1.1748522254748373,Pr4Tl4P8S28,mp-1194930
7.0171,-2.3654482499194827,Cs8H16F24,mp-1196282
3.9185,-1.4495312266723832,Cs4Cr4H96Se8O80,mp-1202355
5.1967,-1.3007293552382613,Ca2H16Cl4O24,mp-1204240
5.6651,-3.3461672083925005,Zr1Ni1F6,mp-1206530
3.0223,-2.9937948237728067,Rb2Mn1F4,mp-1206523
4.1195,-2.9578178311931818,Sr6Li12Ta4O22,mp-1208758
2.5142,-2.8332440923437487,Sm4Cr4Ge4O20,mp-1208812
3.4707,-3.1156819184446163,Sm6W2Cl6O12,mp-1208868
0.3033999999999999,-0.56916773875,Nd6Cu6Bi8,mp-1210067
4.4611,-0.966490474851428,H48Pb4N12Cl20,mp-1212614
5.0904,-2.9938325262990184,Ba8B20Br4O36,mp-1214841
3.8877,-1.9348574828620684,Cs12La4Br24,mp-1213905
2.3428,-2.048983010267242,Rb2V6Cd8O24,mp-1219122
3.3653,-1.4942010695305352,Na2H2Se2O8,mp-1220802
2.2089,-2.1065402194062504,Na1Pr1S2,mp-1220912
0.28669999999999995,-0.4407145241379311,K60Ga18Sb38,mp-1225850
0.03469999999999995,-0.2365440071428573,Li5Tl2,mp-12283
5.0608,-3.404055063934219,Ba10P6O24F2,mp-1228113
0.8279999999999994,-1.2226967761718752,Tb4Cu4Se8,mp-12984
1.1277999999999997,-0.3786800634635412,Tl4Ge2Se6,mp-14242
0.0016999999999995907,-0.9477807492857134,Y6Si6Rh2,mp-16225
2.1491,-3.2533821941666665,Ho8Mo4O24,mp-16811
1.575,-1.325183437777094,Rb8Mo4S16,mp-18612
2.7796,-1.2257273867000005,K2Ni1O2,mp-19252
2.5747,-2.557678062159091,Tm4Fe4Ge8O28,mp-19483
0.010099999999999998,-1.938181894642501,Ni1Rh1F6,mp-20580
0.02160000000000029,-0.8453593850000006,Gd1Al3Pd2,mp-22505
1.5625,-1.2989726820501788,As2Se12I2F12,mp-23569
2.458,-0.34095462677199995,K1Mg1H3,mp-23737
5.562900000000001,-2.645643784554061,Nd4H4S4O20,mp-23831
0.7411999999999999,-0.9699450788400004,Ni1Cl2,mp-27396
3.1924,-0.4116558167500003,Hg4Br4O12,mp-27994
4.5144,-3.5909403565262745,Ba6In4F24,mp-28274
1.6964,-0.7714126813052778,Pd2Se4Cl12,mp-28175
2.7811,-2.0433364146875,Dy2S2I2,mp-28929
3.7051,-1.8377714691890907,Al4Cd2Cl16,mp-28361
5.4318,-2.7607952571875,Nd4S6O24,mp-29265
6.7147,-3.4068835360639995,Na6Al2F12,mp-3416
3.4987000000000004,-3.3880553055833347,Mg2Ti2O6,mp-3771
1.1768,-2.058167417321429,Tm4Cd2S8,mp-4324
0.4668000000000001,-1.1097771955555558,Ag4C2O6,mp-4691
1.4987,-1.6084995199674337,Cs4Na12Pb4O16,mp-505396
1.9705,-1.6965169934027782,Li24Pt12O36,mp-531826
1.945,-0.4712913670312506,As16S16,mp-542810
3.6557,-1.5329036995934775,Li8Pr4N20O60,mp-555979
2.8394000000000004,-3.0168513559599983,K2Mn1F4,mp-557610
2.4831000000000003,-1.8437312111305555,K24Ti8S24O4,mp-558062
1.7396,-1.7772810677187494,Na2Au2S4O16,mp-561190
0.7305000000000001,-1.6673286631896558,Cs2Te4O12,mp-561786
1.6302,-0.4080484846301025,Cu18P24S24I18,mp-565597
3.454,-2.3402913534967156,Cs6Na2Li4B4O12,mp-607931
2.4608,-1.1207972017075,Cl8F24,mp-619575
3.6774,-2.1277906017303767,Rb8Cd8S12O48,mp-6623
1.9874,-0.7239536266646667,H32W4S16N8,mp-697283
2.3008,-1.7334436756944445,Re2Ag2O8,mp-7094
3.4282000000000004,-3.815870704886364,Sm6Ta2O14,mp-752686
2.6578,-3.0652279058514296,Mn2Al4O8,mp-755882
3.8853,-3.7829218099999986,Sr2Zr7O16,mp-770419
4.8322,-2.7892234329684213,Ca4Sb8H8F56,mp-780667
7.0881,-2.9417771163488093,P2F10,mp-8511
0.8987999999999996,-0.37630289513888826,Li2B2C2,mp-9244
2.3664999999999994,-2.172589535867458,Rb1Er1S2,mp-9367
0.17039999999999988,-0.6881150861111109,Er4Cr4B16,mp-985700
7.0089000000000015,-3.0613495617228565,Na1P1F6,mp-10474
1.9348,-2.438559405575398,Nb10Pb14O39,mp-1101724
1.4656000000000002,-0.2457440726785709,Zn8P16,mp-11025
0.3729,-1.2196149027083334,Co6Ag9Sb3O18,mp-1181748
0.3621999999999996,-0.014667739866666429,Ba1Mg149,mp-1184337
2.0326000000000004,-2.71978474075,Ca4Cr2Sb2O12,mp-1189906
2.2949000000000006,-1.5762054405649988,Sm6B6N12,mp-1192040
2.8937000000000004,-2.8585220288137254,Na4Y4B4Te2O20,mp-1194587
0.4383999999999999,-2.4506731388825465,Na12Mn3S6O24F8,mp-1194939
2.5923,-2.3794784137719303,Ca30I12O72,mp-1196062
2.3055,-0.4804692091027145,Cu4As48P16S48Cl4,mp-1197298
1.7598,-0.8527178398599999,Sb8N8Cl64O8,mp-1197652
2.5225,-2.0269561874601894,Rb4Mo6Se2O24,mp-1198721
1.1391,-1.057145675111111,K2Tc1Br6,mp-1206472
2.5202,-0.3900600539999999,Te8Br32,mp-1208424
5.5128,-2.7627937654227948,Sm4S6O24,mp-1208980
4.3342,-2.4222444814635717,Rb2Y2Se2Cl4O6,mp-1209082
4.3862,-4.2426754008746315,Rb2Gd6F20,mp-1209289
1.1124,-2.3094094013488893,Pd2Pb4F12,mp-1209528
4.2104,-1.6928896023500002,Na6Er2Br12,mp-1210529
4.3632,-2.660586647191483,Rb8Pr16Cl56,mp-1209859
1.3301000000000005,-2.1379199728280947,Hf12C2Cl28,mp-1212485
1.0113,-0.9519686993769164,Hf4Te28Se4Cl24,mp-1212434
2.0776,-0.8013544771282332,Cs16Re24Se32I24,mp-1214500
1.198,-2.59091283359864,Na1Mo2P4O14,mp-1220983
3.0522,-2.482213724416667,K2Mg1Zr1Mo4O16,mp-1223759
4.694299999999999,-2.8256377917863227,Cs4Si8H4O20,mp-1226125
2.5344,-2.5239343242708348,Ca2Ga8O14,mp-17914
2.2869,-1.2341990528566658,Sr8Nb4N12,mp-17701
3.8015,-2.144514914675,Na8W2O10,mp-19334
0.0019000000000000128,-0.8092380579999997,Gd1Ge2Pd2,mp-22181
2.1356,-1.5094390621428582,Ni4Ge2O8,mp-22638
4.3052,-2.73397926932,Nd2Cl6,mp-23183
2.9045,-1.6635225728108536,Rb4Co2H16C4O20,mp-24624
5.4068,-1.5762284319493265,Mg3P4H48N2O30,mp-24303
2.8128000000000006,-2.0960980375347225,Ba12Si4S20,mp-27805
1.6129000000000002,-0.7549913416302084,Na8Ge4Se12,mp-28278
5.476800000000001,-1.2041768681008047,Rb4Cl4O16,mp-28433
3.1228,-1.6717271051833331,Na4Te8O18,mp-28904
5.7206,-1.6209870387292498,H16S4O20,mp-29095
0.5184000000000006,-0.4103751548809515,Si6P4Pt2,mp-29157
3.3405,-1.884870116947143,Te4O6F4,mp-29185
4.8766,-3.4014928480113795,Cs2K1Zr1O1F5,mp-40143
1.0283,-1.4991063743141382,Rb6Re6Cl24,mp-504957
3.1599,-2.2446908255,Sr2Bi2Br2O4,mp-552234
3.9435,-2.4818349002105258,K12Sc4Mo12O48,mp-555776
3.7314,-3.0701639808842853,Er4Mo4O16F4,mp-556766
6.4524,-3.354669110383333,K20Li8Nd4F40,mp-557798
3.2107,-2.493849503303572,Dy16Te24O72,mp-558224
5.2063000000000015,-3.065528495746124,Sr8B28O50,mp-559330
1.6195,-2.1969707218055547,Ba6Zn10In4O22,mp-560544
1.1308000000000002,-1.5332884492968752,Sr2Lu2Cu2Se6,mp-568191
0.6025,-0.4044036197499999,Tc8Br32,mp-570480
2.5338000000000003,-1.6649072809920686,Cs12Cu8Cl20,mp-582024
3.7131,-2.9139264416666677,Ba8Ti4Ge8O32,mp-6289
3.1474,-3.2258761519526185,Cs2Ti2Zn2O2F10,mp-676448
0.2591000000000001,-0.9849116183976284,Cs4Ta4Se12,mp-685607
1.3435,-2.556864113081818,K4Mn2H4O2F10,mp-696630
0.8248999999999999,-1.83875310575,Na4Co2As2C2O14,mp-772664
0.6421000000000001,-1.6555031428924998,K8F24,mp-867934
1.8334,-2.5996132265969227,Na2Cr1H2F8,mp-973225
1.5869,-2.367589618707143,Zn2Co2F10,mvc-14327
2.0976,-2.8379532904928575,Ca4Ni4F20,mvc-3744
0.08329999999999993,-1.0859083058333336,Sr6As6,mp-1049
5.0398,-2.916546965941327,K2Ca2P6O18,mp-11625
0.21370000000000025,-0.02086760188333301,Sm1Mg149,mp-1187791
2.7982,-1.377732994431111,Bi4Te4N4O24,mp-1195032
4.222,-2.094816740927083,K4Sb4S8O32,mp-1195296
1.4691,-2.8059070064914287,K4Mn4P4O12F12,mp-1198325
0.1459999999999999,-1.4313696446590918,Cu4Te8Pb4O28,mp-1203135
2.5032,-1.716862424589844,Mo4Pb2Se4O22,mp-1204412
1.5290000000000001,-1.7171247769687497,Ba2Pd2Se4O12,mp-1205352
3.7865,-2.790983849671698,Rb36Mg12B58O116F2,mp-1200013
0.7229000000000001,-2.4148405421802432,Rb4Cu4P12O36,mp-1209760
2.5600000000000005,-3.5037235173369567,Ba10Ho4Zr2Al4O26,mp-1214508
5.0791,-3.56698303982639,Y4Be2Al2B2O14,mp-1216100
2.5615,-3.0091991881622233,Ta4Mn4Nb4O24,mp-1217948
1.4658000000000002,-1.1255605952812502,K1Bi1S2,mp-1223443
2.6507000000000005,-3.444086610583335,Gd2B2O6,mp-1224628
0.3534000000000006,-1.096826757797619,Al1Cr4Ag1S8,mp-1228999
6.4009,-3.4827155546822226,Li2Ca2Ga2F12,mp-12829
0.8489000000000004,-1.2355676414285708,Cd2Rh4O8,mp-14100
3.387,-2.764766784916666,Sr6Ge6O18,mp-17464
0.03230000000000022,-3.3218309621679696,Sm6Ti6Se4O16,mp-18082
5.5021,-3.2354831143668843,Ca8P8O28,mp-17922
3.6153,-2.9158658113571425,Na4Tm4Ge4O16,mp-18629
1.0159000000000002,-2.9509447048336366,Lu4Mn4O14,mp-19153
0.9406,-0.3567487162698413,Na20Sn4P12,mp-18317
4.1465999999999985,-2.7282853225,Ba2Mo2O8,mp-19276
2.9685,-3.194929065833333,Gd2V2O8,mp-22024
4.6815,-1.989500917825,I10F50,mp-23257
5.1147,-1.6809738815211763,Sn1H8N2F6,mp-24113
0.6596,-0.7229455928333332,Na2Ag6O4,mp-27303
4.8099,-1.6673239435864278,Ba4H32O20,mp-28587
0.5853999999999999,-1.1365047116071432,Sr32As24,mp-29424
3.8132,-2.40927677209,Na4Sc4Cl16,mp-29432
0.7490000000000006,-0.2178753315624995,Co8Ge12Te12,mp-2994
1.7509,-0.8095797376160719,K4Au4S20,mp-3592
1.2296999999999998,-3.3855834692508338,Sm2S2F2,mp-3931
2.7849000000000004,-2.696229998214285,Ca4Cr8O16,mp-540582
5.2239,-2.8218634147817463,Nd4Tl4P16O48,mp-540742
0.010299999999999976,-1.9321039063775507,Tl4Cu4P4O16,mp-541201
0.007299999999999973,-1.8184612823863635,V4Cu4O14,mp-542860
2.0249,-1.80409642121638,Cs8K8Te4O20,mp-556400
3.9325,-2.9301035652518177,Ca12W4Cl8O20,mp-558558
2.2622,-2.164855911753167,Rb6Mo24P2O80,mp-560115
0.8801000000000005,-2.9775906237990184,Eu8B20Br4O36,mp-558834
2.7939,-1.2357978355833332,Ti8Br32,mp-569814
0.9520000000000001,-0.6349932076672149,K20Ag8As12Se36,mp-570836
0.10279999999999978,-1.5851989070588235,Pr6Co1Br10,mp-570965
2.2086,-0.6814063150000003,Tl1I1,mp-571102
1.9907,-0.8301407595258623,Cs2Hg4Br10,mp-619510
1.1042999999999998,-1.4528970541176471,Re8Hg20O40,mp-667343
3.0273000000000003,-2.629936111666667,Ba24Ga48O96,mp-680226
0.8472,-0.7274422576631944,K4Sn4Se10,mp-8966
3.9006,-4.0069550435000005,Tb16O24,mp-1056
0.5556000000000001,-0.8737900270312506,Pb1S1,mp-1057015
0.3878999999999997,-0.9457452699999996,Ba4Cd2As4,mp-1079666
1.0051,-1.9465773981423613,Ba2Tb2Ag2S6,mp-1095340
1.2113000000000005,-0.4496790186979176,Sb4Ir4Se4,mp-1095507
1.4061000000000003,-2.4795443960227286,Dy4Pt4O14,mp-1178365
3.3852,-2.2140265706944446,Li2In2W4O16,mp-1190195
1.4119,-1.9006353367753952,Rb2Pd1S8O26,mp-1195322
1.6504000000000003,-2.6158830595567863,La16Mn8Se16O16,mp-1196301
4.8312,-1.1771138534159404,Cs6H24N8F6,mp-1196740
2.2838,-2.373342245723684,V16Cr8O52,mp-1200219
0.7043000000000004,-1.458282528833334,Zr3Tl2Cu2S8,mp-1207410
2.1491,-1.6346076386950001,Nb2Tl2Cl12,mp-1209881
3.1024000000000003,-3.383351212,Nd12Tm8Ga12O48,mp-1210408
2.7388,-1.5324872245,K8La4I20,mp-1212017
2.8911,-2.634282989204546,La4Ga4Ge8O28,mp-1212633
1.3344999999999998,-0.4297622493665851,Cs4Na2Ga2P4,mp-1213705
0.9006999999999996,-0.7301839038541663,As4Ru4S4,mp-1214786
3.8454,-3.3192521929427086,Ba18Dy6B18O54,mp-1214848
1.2357,-0.7943331177698414,Na3Sr3P3,mp-13275
3.0283,-2.32567647432823,Zn8Ag8P24O72,mp-14260
0.5314999999999999,-1.1768432666133866,Rb36Fe8S28,mp-14890
5.4251,-3.8851804207794447,K4Zr6O2F24,mp-17888
1.8267,-2.952153290963869,Rb4Na2Mn6F24,mp-18518
3.2799,-3.061799380659259,Na3Mn3Cr3F18,mp-18641
1.6507,-0.3198929030848213,P4Pb4Se12,mp-20316
0.3814000000000002,-0.3562312352500001,Ge24Ru16,mp-21945
0.3054000000000001,-2.1291423362500006,Ba2Pb2O6,mp-22230
3.3033,-2.1457821446333334,B4Cl4F24,mp-23398
2.4311000000000003,-1.1829306492241376,Rb2I2O8,mp-23450
4.8667,-2.4597398425833337,Nd2H4Cl2O4,mp-24124
2.9329,-2.6040283341075003,Er2S2Cl2,mp-27616
1.2844,-1.5511273666944059,Rb2Pd1Cl6,mp-28145
1.9745,-1.3269490630833332,Na12Au4O8,mp-28365
2.024,-1.4103181215813578,Cs2Sm2Zn2Se6,mp-505709
1.2695,-2.2442638878125,Nd1Bi2I1O4,mp-549333
0.9253,-0.6175397693975002,Hg28Cl8O12,mp-541193
2.1319,-1.5309636687053567,Hg12P4O16,mp-554914
1.8158,-2.1919348821057696,K4V4S8O36,mp-555364
4.3013,-2.828478411953689,Cs2Sb4F14,mp-556583
2.8719,-2.6651696853676468,Sr4V6Bi2O22,mp-556533
0.7049,-1.427023833607,Tl16Os8C8Br16O8F24,mp-556622
2.9664,-2.1544970942049813,Rb4Te2W6O24,mp-567014
1.2191999999999998,-0.8573133945299998,Sr16C4N16,mp-567601
0.1993999999999998,-0.9631830292857142,Pr6Os2I6,mp-570779
4.5412,-2.1299600771980005,Ba8H16O16,mp-626973
2.8561,-0.37838789875,Si8I32,mp-635441
0.049900000000000055,-0.11493527084076448,K49Tl108,mp-640333
4.2653,-1.8171444888947224,Zn2H4S2O10,mp-643066
3.9718,-2.6490856738750006,Li12Al4Ge4O20,mp-6765
1.0651,-1.439449854280228,Cs6Ti6S27,mp-680170
2.8106,-2.5994269807340755,Ti2Tl2W2O10F2,mp-690560
6.8114,-2.273134414662,Al4H16N4F16,mp-696815
1.5754,-1.5513988611111105,Tc2Ag2O8,mp-7206
4.0436,-3.1673574429999998,Na4Dy4O8,mp-752672
2.3593,-2.617560854964,W4O4F12,mp-753398
1.5585,-0.6710471506944659,Rb6Ge2P2Se14,mp-861898
0.5326,-2.4615512633636367,Ba6Na2Ru2O12,mp-9745
4.381900000000001,-2.506708819321429,K1Li6Ta1O6,mp-9059
0.5894000000000004,-0.4662631754101562,Ge12Ir8Se12,mp-975924
0.7050000000000001,-1.076260699375,Nd1Tl1Te2,mp-999319
0.5509000000000004,-2.9463198067500014,Ca4V4O12,mvc-13158
2.4387,-3.2384210808925005,Mg1Mo1F6,mvc-13940
2.1572,-1.2158183183839282,Na8Zn8S12,mp-1094107
0.6513,-1.8061129689,Na2C2O6,mp-1120755
1.3536,-0.6836314883935183,Na1Ti1Cu3Se4,mp-1180119
0.033399999999999874,-0.01729774099999967,Mg149Zr1,mp-1185655
3.1565,-0.9399211111899994,Li2La2C4N8,mp-1189974
1.7407000000000004,-1.3424571174166675,Cd4Ni12Te6Pb2O36,mp-1194532
1.582,-0.7274734495511358,K8Zn4Sn8Se24,mp-1195072
3.0506999999999995,-2.3252706104887215,Mg8Bi32P16O96,mp-1199340
2.5056,-1.5176222806875004,Fe6Sb10I6O18,mp-1199909
3.7076,-1.4220631379679494,In8H48Cl24O24,mp-1201210
0.053300000000000125,-0.30245176999999995,Tb16Cd4Ni4,mp-1208455
5.2526,-1.1043493718612505,Tb2Cl6O24,mp-1208575
5.9442,-2.884576953767361,Mg6B14Br2O26,mp-1210659
2.9703000000000004,-2.517119046666666,Lu2Tl2W4O16,mp-1210736
0.3091999999999997,-0.5820340893055546,Lu16In4Rh4,mp-1210928
0.4546,-1.563365843708333,K8Co4O12,mp-1212013
1.6899000000000002,-1.4415034521428571,Ca12Sb4I12,mp-1214080
0.6455000000000002,-1.2479515141666664,Ba2Pr2Cu2Te6,mp-1214381
2.3468,-3.655112836631,Ba4Ca2Mn2V4F28,mp-1214724
2.0722000000000005,-1.9933303509510876,Nd6Mg1Ge2S14,mp-1220243
1.3197,-0.8510939953636854,Rb12Sb4Se16,mp-17638
0.0578000000000003,-2.873018431346,La4Mn2Co2O12,mp-19208
4.98,-2.5018934876575,Sr2H2Cl2O2,mp-24066
4.6838,-2.4302115507653324,Rb4S4F20,mp-28555
1.5168999999999997,-1.487655109071249,Y1H1Se1,mp-28797
1.4983000000000002,-1.4185642353571437,Hg14P4O20,mp-29958
0.0060999999999999934,-0.17131150166666606,Gd2Co4,mp-542633
1.854,-0.7747810460593335,Ag2N2O6,mp-552185
0.0014000000000002901,-0.6149981125988886,Li80Ge16N48,mp-531553
1.5128000000000004,-3.118711601203126,La20Ti8Ag4S20O28,mp-555253
2.2900000000000005,-3.0089301080555555,Ta4Sn2O12,mp-556489
4.1092,-3.3626722618488887,Na4Sr4Fe4F24,mp-556802
4.2083,-2.685215354544028,Mn12B28Cl4O52,mp-556656
3.344,-0.6726154613702879,Si2H34S6N10,mp-557080
3.327,-2.690807690545336,Rb16Mg8P16W8O80,mp-561031
4.5227,-1.9922538223185224,Rb24Zn12Cl48,mp-568350
1.3729,-1.5715955341049277,Ca18B4C8Cl16,mp-569892
1.2553,-0.7074128006736112,K12Nb8Cu4Se48,mp-6168
5.3819,-3.1432209265699407,Sr3B3P3O15,mp-6486
1.7154,-1.5722125648429806,Cs8Zr6S28,mp-680246
0.1583,-0.7086121844486367,Re4Se16Cl24,mp-680308
0.2208000000000001,-0.5989675830000003,Ca1Cd2As2,mp-7067
1.7662,-0.28704495587285705,K24H24Pd8,mp-707337
3.9748,-1.9303220065097957,Mn2P4H16O20,mp-721692
1.6390000000000002,-2.29353109402125,La10C4Cl18,mp-619791
1.6359,-2.5605066959663865,V1P6W3O24,mp-760032
3.4413,-3.735695369818628,La26B8O51,mp-759763
2.5975,-2.849049546554622,Nb3Cr1P6O24,mp-774426
1.9786,-1.5964212397000004,K4Zn2O4,mp-8187
3.1969000000000003,-2.971194808,Na2Pr2O4,mp-8470
0.234,-0.9172525525000004,Ca2Sb1Au1,mp-861950
2.1789,-2.510295279107144,Sr4Dy8S16,mp-980666
0.1352000000000002,-1.357579246857,Ca6Sn2N1F1,mp-989590
1.4771,-1.6829899191964282,Lu4Mg2Se8,mp-10191
5.5484,-2.7550768061844906,Rb8Li12B4P16O56,mp-1020705
1.1054000000000002,-0.7409947737522327,Na3P1Se4,mp-1078419
0.8096999999999999,-0.5073910221999995,K4As4Pt2,mp-1079513
4.7905000000000015,-3.7353274337500006,Tm2Si2O7,mp-1095467
4.1394,-1.8367294361913795,Cs2Na1Pr1Br6,mp-1112146
4.9056,-2.4747889654818627,Cs2Rb1Sm1Cl6,mp-1112118
1.3351000000000002,-0.43508739366285776,Fe1P1H12C4Br4,mp-1190395
2.4046,-1.1459742300982143,Na12Sb4S12,mp-1193673
1.0925000000000002,-1.7406336480902778,La8Cu4Bi4S20,mp-1195675
3.6348,-3.8188117086458337,Ba4La8Sc8O28,mp-1197417
2.6382,-2.732699713858572,Nd8Mo8Cl8O32,mp-1199278
3.6993,-2.6279322469776933,Sn12Sb4F36,mp-1201723
1.2466,-1.01040418984127,Ca6Al4P8,mp-1205337
3.7175,-1.985310850456,Li1Sc1Tl2Cl6,mp-1205649
3.0372000000000003,-2.8909216164928075,Rb2Fe1F4,mp-1206640
2.8099000000000003,-1.9455288627500007,Na4V16Bi52O120,mp-1212549
2.5352,-2.6838389579026893,Cs4Gd8Cl28,mp-1213349
2.4311000000000003,-1.5464752111046514,Fe7Sb10Br8O18,mp-1203691
1.3573999999999995,-2.0693631595238102,Ca2Ag2As2O8,mp-1213950
2.2451,-0.7247106410227279,Tl8Mo24Br56,mp-1217483
1.6935999999999996,-1.5183921656562491,Sm18Al10Se42,mp-1218878
2.5997000000000003,-1.5257503940905568,Cs10Re12S16Cl14,mp-1228296
0.3463000000000003,-1.1892235129096291,Ba8Eu1B6N12,mp-1228663
1.0162,-1.9846365164493536,Rb2Gd4Cu2S8,mp-12322
3.8989999999999996,-2.7741409578750003,K8Ta8Ge8O40,mp-14377
3.9066,-3.0729044870098043,Ho4Ni2B8O20,mp-16779
1.5441,-1.8357462282417387,Cs4Er12Se20,mp-17410
3.2482000000000006,-3.306418443142857,Na4Gd4Si4O16,mp-18515
5.8706999999999985,-2.6879459990520838,K4Er4S8O32,mp-18555
1.0707,-2.9294786734700002,Er4Mn4O14,mp-19256
1.2232000000000005,-2.387077205,Ba2Pb1O4,mp-20098
0.03000000000000025,-0.8393476540000009,Gd1Si2Ni2,mp-20956
3.9677,-2.4004224325935297,Cd4As8H4F52,mp-24302
1.3499,-2.488607747142857,Li4Co4P16O48,mp-26997
2.4813,-1.3091042343920465,Na16Ga8S20,mp-28773
0.6795,-0.7984730854218745,Na1Cr1Se2,mp-3332
3.2289999999999996,-2.5546054844936896,Ag1P1F6,mp-34418
1.3371000000000004,-2.351701190625,Y1Bi2Br1O4,mp-553243
4.262499999999998,-2.7533732150000008,Ba10Si2Br12O8,mp-553884
3.5717000000000003,-3.3519677371315377,Ba4Na4Cr8F36,mp-556890
3.0384,-2.2254511961875005,Lu4Te10O26,mp-557829
3.5973,-1.4934687839423075,Sm4I12O36,mp-558007
2.0351,-0.9557837966145836,Ta4Tl8Ag4S16,mp-558241
2.9139000000000004,-2.3917893201298894,Na3Gd3H6S6O27,mp-559407
4.7115,-2.803749592317112,Cs4Na4B20O34,mp-559557
2.3385,-2.9124300502672416,K12Nb24V4O76,mp-561406
2.7979,-0.7086225322082231,Cs4B24Br24,mp-569897
3.7629,-2.4891075912431937,Cs12Nd4Mo12O48,mp-573369
0.234,-0.4972922266666669,Ge8Te8Rh8,mp-607818
2.2321,-1.7592314950047914,K2V2H2Se4O14,mp-644015
1.5657,-1.1161970726523316,Cs2Ho4Cu6Se10,mp-672258
2.457,-2.4263782035714287,P4W2O16,mp-687234
1.3182,-0.7439405446843146,Nb4Se34Cl24,mp-573340
3.0524000000000004,-0.4507692230799999,Ba4Mg6H20,mp-733604
4.6538,-1.825265395385817,Cs8Mg4H32C8O40,mp-733936
2.592,-2.54283678625,Tb4Fe4Ge8O28,mp-744184
1.1188000000000002,-1.6979013592968748,Hf2S6,mp-9922
2.233,-1.944106677857144,Zn2Mo4O8,mvc-5694
1.0215999999999994,-0.21803253125000044,Be2Si2As4,mp-1009087
2.2919000000000005,-2.1783036231562503,Na1Y1S2,mp-10226
3.4601000000000006,-3.04193378075,Sr2Ca1W1O6,mp-1078671
6.773300000000001,-3.6206391378140004,K2Li1Sc1F6,mp-1111110
0.5684,-1.3613798675000006,Tm8Te12,mp-1188133
3.2305,-2.0872712779427265,Tb4H4C12O24,mp-1194953
0.2121,-1.0344025292651895,Cs40Tl24Si4O16,mp-1199833
3.9416,-1.5418320934758776,Zn2In4Se8O24,mp-1201376
0.5461999999999998,-0.40815059448275903,Cs4Ni2As4,mp-1206689
3.7882,-1.3701109790000003,Zr8Br32,mp-1207486
2.7913,-1.868513544230771,V8Ni8Pb4O32,mp-1207918
7.490299999999999,-3.91342752305387,Rb2Dy2Be2F12,mp-1209211
0.1961000000000004,-1.2252932841666666,Pr4Te4As4,mp-1209288
2.661,-2.099029953433908,Cs2Bi2Mo4O16,mp-1213697
0.02510000000000012,-0.5533699784374999,Dy20Co4Bi8,mp-1213372
5.0267,-2.567992755151724,Cs8Tm4Cl20,mp-1213743
1.4047,-1.5896487267857142,Ba12Sb4I12,mp-1214632
2.4118,-2.1254154248660715,Tb18Al10S42,mp-1217749
1.7748999999999997,-1.992775882078544,Cs2V2Te2O12,mp-1225864
2.4973,-1.3955314138663797,Cs1Li1Zn1S2,mp-1225887
1.9335,-3.299123846583333,Ba3Lu2Mo1O9,mp-1228133