band_gap,formation_energy_per_atom,full_formula,task_id
0.7546000000000002,-0.5864129597500002,K8Li4Ga4As8,mp-9703
0.8556000000000004,-0.7648147733253969,Ba3Na3P3,mp-9732
0.5231,-1.998249158952,Ru2F8,mp-974434
0.7793000000000001,-0.5095373935351564,Ge12Rh8Se12,mp-976401
4.8849,-2.9248568409356035,Rb1Sb1F6,mp-9821
5.2201,-2.3467399273060003,Na6Dy2Cl12,mp-982980
3.7526,-1.9102859229749651,Rb2Na1Bi1Cl6,mp-989520
5.2687,-3.015031196566299,Rb2Na1In1F6,mp-989578
0.8084999999999998,-0.913750644375,Cd2Au2O4,mp-997036
1.1674,-1.120093368,Na1Au1O2,mp-997089
4.4047,-1.9588104086,K2Ca2Br6,mp-998599
2.2812,-1.17919908994,Hf1Zn1N2,mp-1014251
2.6752,-2.053254131388891,Re16O56,mp-1016092
1.3611999999999995,-0.5497642357142851,Li1Zn1P1,mp-10182
0.05100000000000016,-3.119124409768519,Ce8B28O54,mp-1019597
5.3318,-2.111176045320833,Na8Si4S24O84,mp-1020159
2.2984,-0.9078008920025002,Na16Nb16N32,mp-1030657
0.2620999999999993,-0.9033323916666672,Zr1As1Ir1,mp-1093991
3.749400000000001,-3.5681919375,Y2Nb2O8,mp-1095229
1.0807000000000002,-0.8081570631302082,K8Ga12Cu4Se24,mp-10973
0.0813000000000006,-0.99646912,Ce4As8,mp-1101892
0.4513000000000007,-1.45647829703125,Tb4As4Se4,mp-1102476
0.0185000000000004,-0.7407080041666667,Hf4Ni4Ge4,mp-1102702
1.2100000000000004,-0.6220686368660708,Cu4P4S12,mp-1105187
3.1671,-1.902489131846112,Si2Ni3H4O9,mp-1105877
1.0132,-2.4838009149374995,Pr2Tm6S12,mp-1105931
3.0698,-3.1175049560000003,Ca12Si12Mo8O48,mp-1170750
0.8815000000000004,-1.0607876952500006,Co2Ni2O6,mp-1178424
1.725,-1.1092101129613083,Li16Re24S44,mp-1181012
0.4887999999999999,-0.02455603866666649,Mg149Tl1,mp-1185635
1.7842999999999996,-0.7181870475000004,Ba4P14I2,mp-1188687
1.365,-1.8518150271562503,Lu8Se12,mp-1189125
3.7966,-2.6718067658333324,Li2Dy2W4O16,mp-1192153
3.3825000000000003,-3.302685806289667,Na5Gd4Si4O16F1,mp-1192390
1.1291000000000002,-0.7631616809611046,Cs4Ag8Bi4S12,mp-1193928
5.0044,-2.39447152240625,Na6Y2C6O18,mp-1194479
0.6514000000000006,-0.9295059789534889,Ca42Zn8Sb36,mp-1194667
4.2665,-2.562858378182232,Na8Ni2P4O14F4,mp-1194870
4.0909,-2.21908602983944,Cs4Y4Se8O24,mp-1195090
1.7645,-3.003652828392858,Ba8Y8Fe8O32,mp-1195207
2.8209,-1.2296924138238914,Rb12Bi8Br36,mp-1195363
1.1358,-1.0062653838888893,Sr32Si8As32,mp-1196120
1.9444,-2.4062326056230066,Cs6Dy21S34Cl1,mp-1197810
4.7387,-3.7399701604751288,Tb16B4Cl4O28,mp-1199026
0.6813999999999996,-1.1130634986925287,Cs6Y12Cu6Te24,mp-1199735
7.269,-3.4054202454391937,Ba3B3P3F30,mp-1199844
0.2660999999999998,-2.285170243973334,Ag2Sb6I2F48,mp-1199846
2.298,-1.0630491042181929,Cs16Ge20Pb16S64,mp-1202502
3.3332,-3.305512550113637,Ba4La8W4O28,mp-1203123
0.1229,-0.7424533525659234,Cs12Ti12Te44,mp-1203892
1.8446,-0.6818495777167243,Cs10Na2W8N20,mp-1203906
0.14279999999999982,-0.12978882678947387,K16Tl20Zn2,mp-1204657
5.3553000000000015,-2.0615449497978284,Cs4Na8H12S12O48,mp-1205112
3.2907,-3.5635941622500007,Ba2Gd1Ta1O6,mp-1205549
0.35580000000000034,-0.9096443373809524,Sr2P2Au2,mp-1206849
0.03010000000000002,-0.3093277724528299,Tb12Ta8Al86,mp-1208500
3.1023,-3.1208158505208337,Sr4Co2Si4O14,mp-1208846
3.3402000000000003,-2.4929632906250005,Nd2Tl2W4O16,mp-1209958
1.7360000000000002,-1.1299513061093744,Na2Nb2S12,mp-1210002
2.3023,-2.5132451814499994,Na2Nd2Co2W2O12,mp-1210062
0.053900000000000066,-0.13001613157894773,Pr12Co6Pb1,mp-1210509
4.1831000000000005,-2.5818073165499995,K2Sm2C4O12,mp-1211301
4.3865,-2.5996920507999994,K2Tm2C4O12,mp-1211338
4.7974,-2.8412411159868416,Li24Tm4B12O36,mp-1211340
3.8494,-2.66141624775,K2Pr2W4O16,mp-1211425
2.9599,-2.251997244260417,K2Cr2S4O16,mp-1211656
3.2804,-2.8780160270694446,K6Lu2B4O12,mp-1211659
5.0152,-2.480167832356,K12Ho4Cl24,mp-1211924
1.7092999999999998,-2.4719274337499995,Gd4Ni2Pt2O12,mp-1212708
0.18259999999999896,-3.4473076000390632,Eu2Al24O38,mp-1212749
0.3614999999999999,-2.5312715805570627,Cs4Ga4Ag4F24,mp-1213239
1.4191000000000005,-2.293575631893959,Cs2La2Zr12C2Cl36,mp-1213380
2.5918,-3.076498089422858,Ca4Mn4Si4O16,mp-1213991
5.2881,-3.057672042667253,Ca8B20Cl4O36,mp-1214176
3.3123,-3.5376393294999997,Ba4Sm2Ta2O12,mp-1214622
7.310799999999999,-4.447780356320001,Ba8Lu16F64,mp-1214962
4.7449,-2.8393885165131567,Li24Ho4B12O36,mp-12160
1.9101000000000004,-2.109523121625,Tm2Te1S2,mp-1216554
2.4307,-2.0928897480938704,Rb2Sb2Mo2O12,mp-1219606
1.5456000000000003,-2.0872143158514285,Mn2Ga2Fe2O8,mp-1221831
2.3915,-2.697918225238096,Ba4In1Sb1O8,mp-1228129
3.6754,-3.6056671539200016,Ba2Sc1O3F1,mp-1228342
1.1017,-0.5034653665773808,Al1Ag1Sn1Se4,mp-1228963
2.3313,-2.8908260570833337,Dy4Sb4O16,mp-1236840
6.875,-4.155337015492857,Yb8Al8F40,mp-1261261
1.5046000000000002,-2.868128485793333,Ba2Pd2F8,mp-12623
3.4259,-2.7872271651041682,Ba1Al2Sb2O7,mp-12885
2.2709999999999995,-2.8476250404166663,Sm4Sb4O16,mp-13196
0.09089999999999954,-0.9238339762500004,Sc1Tl1Te2,mp-13314
1.3184999999999998,-3.353309769218749,Gd2Se1O2,mp-13973
2.0202,-2.6552713827640004,K2Na1Rh1F6,mp-14039
2.3920000000000003,-3.1008215051269543,Pr16Si8Se12O28,mp-14836
3.7439,-2.6918303435694444,K24Si12O36,mp-15379
1.3504999999999998,-1.1316945642129628,Sr32Ti8As32,mp-15501
0.007200000000000095,-0.1288684266666659,Al1Cr2,mp-1699
0.6094999999999999,-0.7162548904076876,Rb3Ag6Sb3S12,mp-17756
2.6719,-2.546912883958333,Ba8Zn4O12,mp-17911
1.4334,-0.8778862972333333,K4Sn4Hg6S16,mp-18115
4.052899999999998,-2.804251081190476,Li6Ga6Si6O24,mp-18147
3.7543000000000006,-2.242911886020408,Tl4Zn4P4O16,mp-18168
3.3085,-2.777297108461539,Mg6V4O16,mp-19034
3.0724,-2.9089675536850668,Ba2Cr2P4O14,mp-19110
4.0067,-2.4215779089123384,Ca2Ni6P8O28,mp-19473
2.645,-2.548015130113636,La4Fe4Ge8O28,mp-19980
1.0212,-1.5897784401302082,Ba2Gd2Cu2Se6,mp-20157
0.03699999999999992,-0.612265128,Gd1Si2Cu2,mp-20677
0.008000000000000007,-2.280460180805556,Ba6In2Ru4O18,mp-22352
0.010899999999999466,-0.9404989045833344,Gd2In2Pt4,mp-22656
0.005100000000000549,-0.9222992720454544,La3Ge4Pd4,mp-22729
0.017900000000000027,-0.9151646423809522,Eu2P2Au2,mp-22783
2.4146,-1.8615320133333335,Bi2Sb2O8,mp-23018
1.0390000000000001,0.0,I4,mp-23153
1.8233,-1.1400347043833332,Sb2Cl10,mp-23176
3.8701,-2.563414094945,Sc2Cl6,mp-23309
2.0638,-0.4620350899999993,Cu8W24Br56,mp-23370
1.0173,-0.6986146884375004,Tl16Bi8S20,mp-23408
2.3890000000000002,-1.1889311605,K2I2O8,mp-23562
3.3188,-1.7217736383791828,Rb4Co2H24S4O28,mp-24111
5.4030000000000005,-0.8905230305352949,Al4Si4H36C12Cl8O4,mp-24308
3.4584,-1.9268395606876685,Cs6In4Cl18,mp-27172
0.6295,-0.15701114536458327,Au8Se8Br8,mp-27199
4.999700000000002,-2.616336447395464,B4S4F28,mp-27349
3.4016,-2.222675487477274,K4Mo4O14,mp-27597
2.3747,-1.804181085568621,Cs3Sb2Cl9,mp-27629
2.8436,-1.7621257588541663,S2O4,mp-27726
2.7179,-3.446303573385417,Mg2Ti4O10,mp-28232
1.7964000000000002,-1.4806584221733334,Mn1Cl2,mp-28233
2.4463,-2.516733577873333,La8H8O8,mp-28255
2.9371,-1.1022628885,Li4Ga4Br12,mp-28327
3.1474,-1.5101187866666668,Ca2In2Br6,mp-28534
4.4497,-2.4489457908333336,Li16Si2O12,mp-28549
1.8931,-0.8604113167459094,Pt2S4Cl16,mp-28721
0.1829000000000005,-0.9492942654166672,Ca16As16Pd16,mp-28763
2.7030000000000003,-3.021157518295455,Sm4Sn4O14,mp-2883
1.4618999999999998,-2.063824480506667,Zr12Fe2Cl28,mp-28903
1.4861,-0.5106611711607142,Hg12S8Br8,mp-29096
2.5869999999999997,-2.9972831625,Ti12Zn8O32,mp-29104
1.5657,-0.35429482102272725,Cu8Mo24I56,mp-29440
2.3424,-2.0365266658653853,Bi8W8O36,mp-29782
1.984,-1.96503432127558,Cs12Cl8O2,mp-29983
0.013399999999999856,-0.6337765316666667,Lu1Ni1Bi1,mp-30457
0.7977999999999996,-0.8290266438888891,Ti1Sn1Pt1,mp-30847
2.5259,-1.1853815697614818,Ba12B8N16,mp-30905
2.0753,-0.593787560446429,As1S24I3,mp-30934
0.9677000000000002,-0.3859387969122021,P8Pd8Se8,mp-3123
0.0057999999999998044,-0.4426778438888882,Ga12Ir6,mp-31253
1.2163,-0.5052586423785267,Cs8Pd4Se32,mp-31285
1.3556999999999997,-1.6029768973437506,Hg2S2O8,mp-3228
0.9995000000000004,-1.6109670837500003,La16Te24,mp-32755
1.1437,-1.2729457896111114,Na6Ag2O4,mp-3527
1.5972999999999995,-2.2173497302083334,Li4Mo2O6,mp-35975
7.8271,-4.0589653607933345,Li2Y2F8,mp-3700
4.444000000000001,-3.3010917607933337,Al2Tl2F8,mp-3751
2.6175,-3.0867079441500014,Na4Ta4O12,mp-3858
0.9162000000000008,-0.9159894829166664,Dy2Ag2Te4,mp-4024
3.3353,-2.9271235906594204,Na6Al6Si6Ag2Br2O24,mp-43068
5.9418,-2.80196109734375,Ca2S2O8,mp-4406
1.9809,-3.1751742746590916,Ti6Pb2O14,mp-504427
0.6778999999999993,-2.2140792669140623,Sr4Fe2Cu2S2O6,mp-505312
0.0021000000000004353,-3.384609270859375,Ce12S8O12,mp-510277
0.1581999999999999,-2.9115876063373016,K4Ce4P16O48,mp-540753
6.3698,-2.834491785847857,Tl4P4F24,mp-540850
2.8525,-3.6874746647957144,Zr6Pb2O8F12,mp-541097
0.015400000000000082,-1.1329903214473682,Sc12C4I22,mp-541102
0.9540000000000002,-0.7501651922784092,K8Tc12Se24,mp-541354
2.9681,-2.693179889553808,Cs8V4P8O32,mp-541679
1.1896,-1.4402927728035717,K8Ti6S28,mp-541735
3.0448,-2.5388158194053445,Cs2Re6O12F20,mp-541867
3.9576,-2.4770809301442864,Y2C1N2O2,mp-546864
2.5926,-2.8376893828750003,Zr4V8O28,mp-554326
1.5653,-2.616622643952,Cr8F32,mp-554855
3.6782,-3.096149217,Sr18Lu2V14O56,mp-555068
0.24250000000000016,-3.2614108134478026,Ce2Zr12P18O72,mp-555444
3.3417,-2.423380950386667,Re8O16F24,mp-555704
4.0849,-3.079484855933972,Er12Si4Se8O40F4,mp-555942
3.8857,-2.4020555172115388,Na10Er2Mo8O32,mp-555973
1.9874,-1.9670793990391529,Rb1Tl1S2O8,mp-556120
2.8572,-1.5647486898550726,La4Ti4I20O64,mp-556399
2.8554,-2.163902974263272,Rb8Mo12S4O52,mp-557413
5.0192000000000005,-3.3755721593558987,Ca2Mg5Si8O22F2,mp-557662
1.6883999999999997,-1.8239594288281258,Sm6Cu2Sn2S14,mp-558042
3.1654,-2.8366971610357155,Gd4P20O56,mp-558487
3.1147,-1.5308443196171422,Li12Er4N24O72,mp-559129
2.6822,-2.747985780465714,Tm2Mo2Cl2O8,mp-559178
3.0936,-1.3654288464372948,Cs4Li8B4S12,mp-559238
4.6177,-2.940841382455911,Rb8Na4Al8P12O48,mp-559610
0.13629999999999987,-3.1583638635711115,Li2V4F12,mp-559701
4.9085,-3.735483955888667,Ba6Sc2C2O6F14,mp-560519
2.5344,-1.5733848730138893,K4Ni12As12O44,mp-560548
0.7647999999999997,-1.8397489895914287,Ir4F24,mp-560553
3.238,-2.7058887894117647,Sm4Mo6O24,mp-560690
2.4681,-1.3703429614924576,Rb8Ga8S16,mp-561407
2.7379,-1.7072311568920409,Rb12Co4N4Cl16O12,mp-562140
3.1031,-2.3536805054026484,Na4Co4B4P8H8O36,mp-562382
1.2742,-1.3770486536718751,Nd1Tl1Se2,mp-568588
0.6025,-1.3107497590599997,Na2W12N2Cl36,mp-569050
2.5686,-1.6327786439511112,K2Te1Cl6,mp-569149
0.3523999999999998,-0.8150250333654544,Ca20Co8N16,mp-569383
1.6429999999999998,-0.9456956245178572,Na4La4Ga16Se32,mp-569491
0.8224000000000002,-0.8700170570905459,K10Na2Ti12Se54,mp-569806
1.5137,-0.9142960141607144,Na4Nd4Ga16Se32,mp-570876
0.7424999999999999,-1.04901508647375,Ga8Hg16Sb8Cl32,mp-571190
1.0558,-1.808578495054,Lu2C1Cl2,mp-573376
1.2112000000000007,-1.009969811796875,Dy4Cu4Pb4Se12,mp-601257
2.0973,-1.2704294660757904,Rb8In8S16,mp-601861
0.3007,-1.1914351706285926,Rb2Cr6S10,mp-616544
1.2065,-1.1198674390159675,Cs2Tb4Cu6Se10,mp-6182
1.9139,-1.278798412092477,Rb6Tm4Cu8Br26,mp-623862
2.6454000000000004,-0.17170743714285766,B12As2,mp-624
1.0420999999999998,-0.9089498897395836,Cd4Ga2Ag2S8,mp-6356
1.7416999999999994,-1.1581804843099994,Tb2H4Br2,mp-642807
2.0368,-0.3366376449745458,Na8H12Ru2,mp-643001
5.6584,-2.1569292831526585,Cs2H2S4O12F4,mp-643586
0.34359999999999946,-1.1371596140909093,Dy7Cu3Te12,mp-676306
3.7771,-1.9470855880090907,Ca2Al1H10I1O8,mp-677248
3.0417,-1.5205828505292598,Rb6Sc3N15O45,mp-679927
1.0051,-0.3429962720588237,Ga36Te60Pb6,mp-686076
5.1693,-2.9162082136261533,K6Sn2H2F16,mp-696683
2.7598000000000003,-2.7054735698015864,Sr2Fe2Sn2P6O24,mp-704950
2.0809,-3.1728355914375013,K2Sr1Ta2O7,mp-7148
2.32,-1.8020022937580815,Rb1La1Se2,mp-7176
2.07,-1.5634391374600007,Fe2Te4H3Cl1O12,mp-743878
1.0827,-0.5264342360571433,K4P4Pd2,mp-7505
3.6286,-3.438556085250001,Pr6Ga2O12,mp-753821
1.0021,-2.9433120202881824,Tm4Mn4O14,mp-755041
4.7224,-2.467489361333333,Sm4H8Cl4O8,mp-757145
1.9498,-2.572206741071429,Li4Nb2Cr6O16,mp-758202
1.9817,-0.391334480153918,Rb16Ge36H60N20,mp-759330
4.0772,-2.047823932272728,Li4Fe2C4O12,mp-759605
2.4958,-3.1566345409125005,Sr8Fe4C4O12F20,mp-766474
3.0135,-3.0546395775,Ho8Te4O24,mp-768762
0.20310000000000009,-0.6168459465277785,Y4B16Mo4,mp-7691
0.2271000000000001,-2.4363546809766072,Mn8P4O20,mp-770547
4.9852,-2.2503108129604232,Rb8S8O28,mp-770773
1.1762,-1.5328063548745459,Na40Co8H8O32,mp-774341
6.6924,-3.693991673283755,Cs2Zr1F6,mp-7903
0.39859999999999984,-0.41851406712499983,Na6Sb2,mp-7956
0.6905000000000001,-0.990480762,Li2Ce1As2,mp-8152
2.7786,-2.7744896446425,Sn2F6,mp-8289
0.629,-0.9342341225000004,Ba2Sb1Au1,mp-862631
1.3568,-0.8696471891841132,Cs8Mo4Se16,mp-866654
0.9732999999999998,-1.2413947158250005,K4Mn2S4,mp-8713
4.6000999999999985,-2.4115246434916666,As2F10,mp-8723
0.6866999999999999,-0.4013881261379311,Rb4Sn2As4,mp-8931
5.0258,-3.545656020104167,Nd4Be4Si2O14,mp-9077
0.8788,-2.3043331808928578,Ba2Hf1S4,mp-9321
2.3343,-1.7016824796666663,Na3Ni2Sb1O6,mp-971678
3.6073,-3.0806426864999996,Sr4Sm2Sb2O12,mp-972216
3.2452,-2.257106734166667,Sr2As4O12,mp-983061
7.8978,-1.4794259936479996,H6F4,mp-983357
4.4817,-1.4715494470233337,B2N2,mp-984
1.0051,-1.193966108816379,Cs2Br1Cl6F1,mp-989543
5.8333,-2.756043263603741,Na2Li4B2P4O16,mp-1020646
6.129,-3.5271333452675004,Zr1Zn1F6,mp-1025509
1.7471000000000003,-1.620942617439999,Hf4Mg4N8,mp-1029834
2.0186,-1.14030335453125,Zn1S1,mp-10695
0.7784,-0.9489622250000004,Ba4Zn2As4,mp-1078636
0.2845999999999997,-1.9100135540475005,Ba2Cd2Sb2F2,mp-1078693
1.6167999999999996,-2.147074950625,Nd2Te1S2,mp-10933
0.5834000000000001,-1.6014687497916666,Ga2Ag2O4,mp-11020
3.097,-2.718979384214286,K3Sc1V2O8,mp-1104363
1.7409,-1.7770775183059997,Na6Mo2Cl12,mp-1106352
0.7414000000000001,-0.3835652191249999,Na8As8,mp-1106381
4.9311,-3.4008954109553797,Cs2Y1Tl1F6,mp-1112482
1.9468,-1.2218401330747128,Cs2Sc1In1I6,mp-1113068
0.7739,-1.257632762277778,K1Cu1Te1O6,mp-1147551
0.5841,-0.8604346145610121,Ag4Se2O8,mp-11641
1.7007,-1.4964054413750003,K1La1Te2,mp-11739
3.6865,-2.6499504877000004,Pr4Hf6Mo18O72,mp-1180394
0.9199000000000002,-1.272712671041667,Mg2S4,mp-1185959
0.017600000000000282,-1.5812967664705884,Tb6Ru1Br10,mp-1188684
1.0276000000000003,-2.486834311687501,Nd2Ho6S12,mp-1189307
0.25869999999999993,-2.2052599043154766,Yb2Co1Te2S2O14,mp-1190633
6.8594,-3.7084639047800003,Na3Ca1Mg3Al1F14,mp-1191931
1.7561999999999998,-2.52034553375,Ba4Dy8S16,mp-1193410
5.5682,-2.817969662066192,Ho4P16H4O48,mp-1195109
0.7390000000000008,-1.6919145713085941,Nd8Zr4Se20,mp-1195333
4.2638,-2.7220446680295334,Cs4Li20Mn4P16O56,mp-1195536
0.3475000000000001,-0.2774236934375001,La22Mn6C36,mp-1195612
2.31,-1.6357293114550782,V4Pb8Se12O40,mp-1195841
3.1916,-3.1945057998717945,Gd8Ge4B8O32,mp-1196136
2.23,-1.4266711607500009,Na24Nb8S32,mp-1196173
1.9717,-2.5804052414282053,Cd4Bi4B4F40,mp-1196929
5.4167999999999985,-2.814519790200256,Na16Mg16P48O144,mp-1197474
5.0234000000000005,-3.0518192375235897,Ba4B4As2H6F36,mp-1198263
1.5563,-2.593395482136936,Cs8Mn4S4O16F12,mp-1199926
3.825,-1.9264469201562509,W4S8O36,mp-1201710
6.8923999999999985,-4.052625690830371,K18Ho18F72,mp-1202279
5.5317,-1.328941050924445,Mg2H24Cl4O24,mp-1202344
3.2153000000000005,-1.6813695621687499,Na4Ga4Se8O24,mp-1202879
1.0327000000000002,-2.3118360200390637,Pr8Hf4S20,mp-1203224
0.2862,-2.742466873910977,Ba2Mn6P6O24,mp-1204296
3.7713,-2.0924024740188,Nd4Re12H24O60,mp-1205210
3.731,-1.6290401075999998,K2Sr2I6,mp-1205548
3.0115,-3.61381586675,Ba2Sc1Ta1O6,mp-1205823
3.3999,-3.63371106625,Ba2Tm1Ta1O6,mp-1206029
1.0464000000000002,-0.9321252157142862,Zr12Fe2I28,mp-1207511
1.4063000000000008,-0.8970146143749993,Tl2Pt6O8,mp-1208033
5.107,-3.570810619270835,Sm4Be4Si2O14,mp-1208884
5.9352,-4.233578788703333,Pr2Zr2F14,mp-1209283
1.2866,-1.25162740291536,Rb12Cd2O8,mp-1209286
7.1692,-3.5963615821036674,Rb8Mg8Be12F48,mp-1209662
2.7167,-1.5438957491487069,Rb8La4I20,mp-1209667
1.2045,-2.039033913453856,Rb2Zr12Mn2Cl28,mp-1209676
4.4022,-3.260361822604168,Nd4Be4Ge2O14,mp-1209882
4.8213,-2.505871713756667,Na2Ho2Cl8,mp-1209968
2.4093,-3.2041415617211118,Na4Ca4Ti4Mn4Si8O32F4,mp-1210293
2.0738000000000003,-2.7557488642129644,Mg8Fe4B4O20,mp-1210692
1.0782999999999996,-2.5256287086875004,La2Y6S12,mp-1211293
4.2432,-2.0585992885,K4Sr8Br20,mp-1211375
3.5781,-2.6253459219166664,K4Ho4Mo8O32,mp-1211556
5.5662,-2.600103052056,K4Ca4Cl12,mp-1211643
2.3178,-2.82384470859375,Gd4Cr4Ge4O20,mp-1212488
0.20120000000000005,-1.999030117864584,Eu2Lu2Cu2S6,mp-1212752
5.175,-2.571736605953391,Cs3Ca2Cl7,mp-1213703
0.0064000000000001825,-1.3483085418520575,Cs2La10Ru2I17,mp-1213735
2.6466000000000003,-3.2472051497499983,Ca4Ta2Cr2O12,mp-1214103
0.8803999999999998,-0.7165020906640622,V1Cu3Se2S2,mp-1216363
1.7677000000000005,-2.2512038209138665,Tl8Mo8P8O44,mp-1217035
2.6479,-3.4860932379435488,Sr4Ti12Al32O76,mp-1217828
1.1927,-0.94680681765625,Ta1V1Cu6S8,mp-1217849
4.2742,-3.5713781651041683,Sr2Pr2Al6O14,mp-1218014
0.5387,-2.4732276617500006,Sr1Pr1Fe1Co1O6,mp-1218109
0.8717000000000001,-2.607420613346,Sr2Mn1Sb1O6,mp-1218763
4.9518,-2.112296626231,Sb1H7F12,mp-1219573
1.2010999999999994,-1.338229934144022,Pr6Ge3Se14,mp-1219892
1.4509999999999998,-0.7255812769140633,Nb1Cu3Se2S2,mp-1220452
0.7610000000000001,-0.4459338586250001,Na1Sb1Te2,mp-1220883
1.1852,-0.7290382591718747,Na1Bi1Se2,mp-1221101
2.6625000000000005,-2.5758592129374995,Na1Ca2Nb8Bi9O36,mp-1221182
0.1029,-1.7879607165657143,Li2Mn2Rh2O8,mp-1222353
4.3103,-3.348366148644,K1Mg3Al1Si3O10F2,mp-1223512
5.2355,-2.8556009422857147,Ho4P20O56,mp-12237
1.2752,-2.3950116038779776,K8P8Pd4O28,mp-1224154
0.8845000000000001,-0.408488153720238,Ga1Ag1Sn1Se4,mp-1224848
1.2838000000000005,-1.136427551741071,Er2Cu6S6,mp-1225120
2.9871,-2.8077600203718776,Cs2Cr2Ni2F12,mp-1229022
2.3371000000000004,-2.89639041,Er4Sb4O16,mp-1237008
3.278,-1.6981845847126438,Cs2Hf1Br6,mp-1238793
0.5061999999999998,-1.5204964124399998,Mg2Zr2N4,mp-1245429
0.9531999999999998,-0.15467015993999933,Cd4Ge4N8,mp-1245535
3.8935,-3.185525363818181,Na2Sr6Ta2O12,mp-13042
2.1619,-2.6380898705829656,K1Rb2Rh1F6,mp-14036
1.6511999999999998,-0.4832894984635422,Tl4Si2Se6,mp-14241
2.4160000000000004,-1.72716220107069,Cs8K32Ga8O32,mp-14429
0.7749999999999999,-3.2154798770312496,Gd8Re4O20,mp-15922
0.05950000000000076,-0.2793139400000005,Tl2Te6Mo6,mp-16096
0.9260000000000002,-1.505251174046875,K2Ho4Cu2Se8,mp-16559
2.4553,-2.006128668649424,Rb4Mo4As4O24,mp-16991
2.6255,-3.0153720110227287,Gd4Sn4O14,mp-17064
3.6938,-3.3423588755555564,Er8W4O24,mp-17201
6.2806,-3.330508680432488,Rb2Be6Zn2F18,mp-17229
0.4601,-2.6710748691666675,Yb8W4O24,mp-17646
2.1206000000000005,-1.976667491625,K8Sn4O12,mp-17730
0.3680000000000003,-1.4448864097500007,Ba12Ge4O4,mp-17833
0.8186999999999998,-1.8141345439285712,Ca4Rh8O16,mp-17998
1.1070000000000002,-2.051443196614584,Ba4La4Cu4S12,mp-18079
3.6226,-2.5033648780238096,K2Ge4P6O24,mp-18203
2.2285,-3.243252918333334,Tb8Mo4O24,mp-18340
4.2123,-2.9391423305905198,Ba4Mn4P8O28,mp-18703
3.48,-2.61737431246,Zn2F4,mp-1873
1.9861,-1.7825841637450006,K3Mn1O4,mp-19140
1.9746,-2.7171205962500014,Sr4Fe2W2O12,mp-19266
3.6859,-3.0379031046153853,Sr3V2O8,mp-19386
2.5649,-2.4008317610749708,Rb8Mn4V8O28,mp-19472
3.8444,-2.891022707252748,Ba8Ni4P8O32,mp-19491
3.2707,-3.1903085479687494,Sr4Cr4Si16O40,mp-19508
0.3782999999999999,-0.921335738584822,Eu4P4Se12,mp-20742
0.028999999999999918,-0.4620790338888886,Gd1Co3B2,mp-21252
0.2839999999999998,-1.8451339058333336,Co2Sb4O12,mp-21908
0.0829999999999993,-0.8397249950000011,Eu2Cu2As2,mp-22277
3.8513,-1.493483469,K1I1,mp-22898
2.617,-1.83067059873,Pb2Br2F2,mp-23008
0.9388,-0.26102809770833285,Pt12Br36,mp-23165
3.1283,-0.46816168875,As4Br12,mp-23317
5.5024,-2.1831574872280557,Mg2H4S2O10,mp-24041
2.6843000000000004,-0.8315737495399995,Cr8Hg8H144N48Cl40,mp-24198
4.8423,-1.6991656641856343,Rb4Ni2H24S4O28,mp-24688
0.18869999999999987,-0.3556460675000004,Ga1As1,mp-2534
0.29529999999999923,-0.3374116049999998,Te4Ru2,mp-267
0.38010000000000055,-0.01973129666666651,Sb4Os2,mp-2695
0.7567000000000004,-0.32319620571428515,Re8P32,mp-27267
1.5176000000000005,-1.5112485669290003,Nb2S4Cl4,mp-27362