band_gap,formation_energy_per_atom,full_formula,task_id
4.1509,-3.158184060511667,La2B4Cl2O8,mp-559417
1.7050999999999998,-1.1872152615010527,Na4Pd2N8O24,mp-560120
3.9495,-2.4819084783809524,Na8Li16B8O24,mp-560189
1.7588,-1.5186149333734118,Rb2V4I6O26,mp-560376
2.4278,-1.5837350457738104,La8P8S32,mp-560571
3.2185,-2.9873313444466665,Mn2F4,mp-560902
3.464,-2.9306483175786817,Rb4Gd4P16O48,mp-561138
6.9087999999999985,-3.671745970876666,K4Al4F16,mp-561424
5.1125,-3.258935405048702,Sr8P8O28,mp-5616
2.8668000000000005,-1.5295971005357143,Yb8Ga16S32,mp-561799
3.7919,-3.2003953941418497,Cs12Ta20O56,mp-562434
2.2017,-1.519736677348391,Cs2Ag2Cl4,mp-567558
1.4267999999999998,-0.34222797971428565,Al4P4I32,mp-568423
0.060999999999999936,-0.7762430238461541,Yb10Al4Sb12,mp-568468
0.2795000000000005,-1.0432914650000005,Sc1Sb1Pd1,mp-569779
1.8219999999999998,-0.040841536035333095,Tl6C3N6,mp-570443
0.7588999999999997,-1.5752422680288893,Pr16Te12N8,mp-570623
1.3438999999999997,-0.1357076198616075,Cu8P32Se12I8,mp-570817
2.6067,-1.3692278351495244,Mo24Pb4Cl56,mp-583553
6.6471,-3.742871800814,K4Ca4F12,mp-5926
0.9928,-0.04400781967532455,Cu4P40,mp-606644
5.1071,-1.7669649212369842,Na2P2H6N2O6,mp-632684
3.1577,-0.9439703157275,Na2H2S2,mp-634657
2.2225,-0.4319675844999999,Ga8I12,mp-636675
2.388,-0.5033889856109087,Li8H12Ru2,mp-642847
2.6910000000000003,-0.4868396837927268,Li8H12Os2,mp-642996
1.4676,-0.4679236157466669,Ba1Mg2Fe1H8,mp-643264
2.9005,-1.5123254189075004,H2Pb2Cl2O2,mp-643364
1.3724,-1.149594593929941,Cs4Ti4P8S32,mp-645687
2.7765000000000004,-1.9402123325583327,Pr4In8Cl20,mp-650026
1.4033,-1.0228781083221257,Se40S8O24F8,mp-650178
1.5194,-0.7259764293576659,Cs16As64S104,mp-650280
3.938,-2.6969611797738096,K24Al24Ge24O96,mp-651024
5.2896,-3.0333128358473336,Na12Li12In8F48,mp-6527
2.5661,-2.8829536312499986,Nb10P14O60,mp-654301
5.0932,-2.941399364337302,Na4La4P16O48,mp-6741
4.1635,-3.9845177015789472,Er8Zr6O24,mp-675065
3.0231000000000003,-2.91124345025,Li14Nb14O42,mp-675069
4.2379,-2.6036957016696443,Na2Li2Zn2P4O14,mp-676483
1.4261,-1.285417050855469,K12Nb8S44,mp-680410
0.8388999999999998,-0.29340241692857105,K32Li16Sn64,mp-680450
5.668000000000001,-3.2198836639999997,Er16B48O96,mp-680718
4.3468,-2.8119005505985712,K1Ca1C1O3F1,mp-6867
3.3317,-2.6298221081818194,Nd4Re4Mo4O32,mp-687204
3.0784,-1.0279948476757756,Rb2H2S2,mp-696804
0.5386999999999998,-0.4897589305599994,Li6H8Rh2,mp-697047
3.763100000000001,-3.1011596831793984,K8Hf6Mn2P12O48,mp-697304
2.6678,-0.6486177115083329,H60Rh4Br12N20,mp-706632
4.1749,-1.1297510312431034,As4H72N12O28,mp-720294
0.004699999999999927,-0.3579586376666664,K2Hg2As2,mp-7420
1.9117,-2.998268273571429,Gd4Hg2O8,mp-756040
0.7526999999999999,-2.8319054416518186,Sm4Mn4O14,mp-756215
4.3679,-1.8970035375579228,Na2Ni6P8H16N2O32,mp-757387
1.1876000000000002,-1.7407681496250007,Na8Bi4O12,mp-761686
0.7850999999999999,-2.357458281250001,Sr8Cu4O14,mp-766217
4.7209,-1.3457171476688896,Ca4Cl8O24,mp-768870
0.8380000000000001,-2.6066427089809525,Mg3Mn5B4O16,mp-770722
2.7109000000000005,-2.3467730668076934,Na6Fe2Si2C2O14,mp-771204
2.1896,-2.2638352474692125,Rb12Lu4O12,mp-772821
1.6605000000000003,-2.616527917833334,Sr2V8O20,mp-772957
0.001000000000000334,-3.512305900178572,Ba2Ti6O13,mp-7733
4.1266,-1.6023608180819782,Cs4Mg2H24Se4O28,mp-779875
2.0046,-1.2023764694642856,Al2Hg1S4,mp-7906
3.9344,-2.8655775561276187,Sr4Ti4H16O8F24,mp-849433
0.7561999999999998,-0.8828928739999995,Pr6Sb8Au6,mp-861503
0.3468,-0.445821761875,K10As4Au2,mp-8683
1.2365999999999993,-2.0026148070982144,Nd2Zn2P2O2,mp-9518
1.3536,-2.1336248951266668,K2F4,mp-976802
0.10269999999999957,-0.3973602070714283,Na2Te6Mo6,mp-976892
0.04669999999999952,-0.4360420231944448,Ba8Si12Ag4,mp-9867
1.1326,-1.621514686875,Cr1Au1O2,mp-996996
1.6017,-1.0925890853292306,Ba8Mg2Si4N12,mp-1019517
4.3299,-3.2087698856157627,Cs4Zr8Al4P16O64,mp-1019720
2.1423,-1.2532906597181814,Sr6Al6N10,mp-1029733
2.5305,-0.6098590754087496,Ba16Ge16N32,mp-1029743
3.8773,-3.075653869311852,Ti1Tl2F6,mp-10402
0.19460000000000036,-0.5503384137797624,In1Co3Sn1S2,mp-1077901
1.7557,-1.7383718893505418,Cs2Pd1Cl4,mp-1078085
0.8391000000000002,-1.260791662777778,Ba2Tb2Ag2Te6,mp-1095278
1.9444,-1.0870991225202922,Sc1Tl1P2S7,mp-1095287
1.0928,-1.7311072471973794,Cs2In1Ag1Cl6,mp-1096926
2.7385,-1.1710147847217265,Na4P2S6,mp-1101885
1.7624999999999995,-2.8150255928460006,Dy4Mn2Ni2O12,mp-1104659
4.9373000000000005,-2.4887588692318623,Cs2Rb1Tb1Cl6,mp-1112115
0.16310000000000002,-0.9303423188399998,Co1Cl2,mp-1120788
0.12119999999999995,-0.6919941644444437,Lu1B2,mp-11219
1.8055000000000003,-0.8417903391562497,Al4Se6,mp-11674
0.10449999999999983,-0.3725422068750004,Li1La1Tl2,mp-1185376
0.17520000000000024,-0.01979106709999996,Pr1Mg149,mp-1186994
3.2827,-1.4128200952819998,Tl2Bi4Cl14,mp-1189438
3.0668,-1.564613812647924,Rb4Se4O14,mp-1190543
3.6325,-2.8283359645277777,Na6Sc2B4O12,mp-1191513
0.19959999999999975,-1.7103667279215995,Yb2Cu3Te4Cl4O12,mp-1191603
0.8199000000000001,-0.5495947613984132,Cs4Cu4Sb4Se10,mp-1192085
1.8476,-2.5095655137500006,Sr4Lu8S16,mp-1192751
2.0711,-1.8129853313471431,K2Nb4Cl22,mp-1192824
1.4819,-1.8661675758994256,Cs12Cr4O14,mp-1193081
2.7998,-1.5358806835533694,Cs4Pb2N4Cl4O12,mp-1193131
2.6823,-2.7296233140589075,Cs4Ta4V8O32,mp-1194848
1.1382,-2.0157256604813685,Tl4P8Pd6O28,mp-1194963
3.1817,-2.6311897708771927,Ba2B8Sb4O24,mp-1195214
1.101,-2.306542687226563,Sm8Zr4S20,mp-1196148
3.324,-1.5618863741069224,Dy4N12O36,mp-1196716
0.055799999999999635,-0.8071894338888883,Li4Nd16Ge16,mp-1196908
3.2154000000000003,-2.6456111055788325,Na2Mn4Si6B2H4O22,mp-1197081
5.2934,-1.669317038150248,Cs4Al4H96S8O80,mp-1198095
2.7595,-3.5965613618229177,Gd24Si16B8O80,mp-1198316
0.025700000000000056,-2.4502057455698543,Yb16S24O96,mp-1199459
4.5769,-2.6581829328412367,Rb4Ge4B12O28,mp-1199892
4.774299999999998,-2.8227856811522227,K4Si8H4O20,mp-1201235
3.3585,-2.706558981614924,Rb2Fe6P6O16F12,mp-1201795
4.5801,-3.20531181929487,Sm8Ge4B8O32,mp-1203325
1.8302,-1.0564727438440296,Ti4P8S32Cl8,mp-1203568
3.7209999999999988,-2.7442371381010005,La8Si4C4N8O16,mp-1204122
1.2713,-0.7298094438194445,Zr5Tl20Se20,mp-1205061
2.3334,-3.1502520989876928,Zr16N12O4F20,mp-1207474
6.9078,-4.281313727481774,Rb2Sm6F20,mp-1209116
0.03639999999999999,-0.21207612289473696,Sm12Co6Sn1,mp-1209134
3.3209,-2.6829399046120685,Rb2Tm2W4O16,mp-1209157
3.3689,-2.7218551393596067,Rb3Y1V2O8,mp-1209350
3.6975,-2.6771318522916667,Li2La2W4O16,mp-1210919
4.4863,-2.5823532534413265,K2Zn2P6O18,mp-1211332
3.4156,-2.027446612932291,K4Nd4Se8O32,mp-1211600
3.5981,-2.6247885619166667,K4Dy4Mo8O32,mp-1211686
0.8519999999999999,-1.7167114353288886,K8Mn2O8,mp-1211757
3.6683,-2.6126040111422406,Cs2Sm2Mo4O16,mp-1213306
3.6773,-0.36355517004846094,H54C36N66,mp-1213393
4.3756,-2.6791863677776897,Cs8Pr16Cl56,mp-1213617
2.9727,-3.290895582375001,Ca12Ti12Cr8O48,mp-1214263
3.9227,-3.4323435741203703,Ba12Dy4Al8O30,mp-1214541
1.7614999999999998,-2.5418675432738103,V4P8Pb4O32,mp-1216361
2.2217,-3.2692728669293483,Ta12Mo1O33,mp-1217800
1.9016,-2.546156991590909,Sr6Li2Bi2O12,mp-1218428
2.9583000000000004,-2.4513278619318184,Sr4V6Bi6O28,mp-1218693
0.3745000000000001,-0.5301700699657143,Sr2Li7Cu1N4,mp-1218762
1.1516000000000002,-0.4645792734821431,Re4Mo2Se8,mp-1219132
2.7470000000000003,-1.6713171665602418,Rb1As4H3O12,mp-1219627
2.3603,-1.547596967600715,Pb12Br1Cl7O8,mp-1220145
2.1983999999999995,-0.8540720599663459,Na4Si2Pb1Se6,mp-1221146
2.6468,-1.5510319153457033,K4Co4Se6O18,mp-1223719
2.7798,-3.39863942284091,Gd2Y2Sc2Sb2O14,mp-1224479
0.5646,-0.5244877720587029,Cs12Sn2As6O1,mp-1226383
0.7351999999999999,-1.1462427517410714,Gd2Cu6S6,mp-1226384
2.5972,-3.324920164351852,Ba4Ti6Nb8O36,mp-1228588
1.9619000000000004,-2.944320275888031,Ba6V8P12O48,mp-1228744
0.9158,-3.0414025907612507,Nd2Se2F2,mp-12620
3.5932000000000004,-2.739590295405379,Cs2Na1Tl1F6,mp-13800
3.7302,-2.118044121551724,Cs4Li2As2O8,mp-14364
2.1050000000000004,-1.4039679153214288,Na4Nd4Ga16S32,mp-14515
1.9334,-0.31594396607653,K12P44,mp-1568
1.5518,-1.696437226796875,Li1Dy1Se2,mp-15795
1.0877,-2.0483669023214293,Dy4Cd2S8,mp-16267
0.0915999999999999,-0.32247867025862065,Rb6Sb2,mp-16319
2.8381,-3.413667971739132,Sr4Li8Ti24O56,mp-16691
4.5945,-2.771746921046641,Rb8B16O28,mp-16980
1.741,-2.2012299389062493,Li4V4As4O20,mp-17387
0.9711,-1.1425231472395836,Ba3Cu6Ge3S12,mp-17947
2.0363,-3.189319586543334,Na4V4F16,mp-17999
0.2938000000000001,-0.8375100953571432,Ca12Al4Sb12,mp-18300
5.6482,-2.9477868965865386,Sr2Li2B18O30,mp-18495
0.6217999999999999,-0.7825442794444442,Ca12Ge8As16,mp-18504
0.2408999999999999,-1.2079000683459995,Mn1Pt3O6,mp-18971
2.2961,-2.1892331462016656,Li4Mn2O6,mp-18988
3.7321,-3.0077225297500005,Ca4Mg2W2O12,mp-19324
1.8238,-1.9652156281666664,K1Cr3O8,mp-19335
1.7866999999999995,-2.488644221875001,Li1V1O2,mp-19340
1.7343000000000002,-2.585446394025651,Rb8Mn4S4O16F12,mp-19488
3.3293,-1.8302273515,Pb4C4O12,mp-19893
0.0907,-0.7042114409090914,Yb1As4Rh6,mp-20082
2.612,-2.1320303014285718,Cr4Co2O8,mp-20758
2.3061,-0.8051432802876987,In1P1S4,mp-20790
2.7424,-2.13965425075,Li4Fe4Ge8O24,mp-21270
2.2643000000000004,-1.4293827389880955,Sr8In16S32,mp-21781
1.4818000000000002,-1.3747576152999996,Na2Pt1O2,mp-22313
1.8233999999999997,-1.72290323234375,Cr2Pb4O10,mp-22373
0.0968,-0.5272187570512815,Nd4Ni2B20,mp-22471
1.3112,-0.6746365891666666,In2Br2,mp-22870
1.9363,-1.6124038533610732,Rb2Pt1Cl6,mp-23350
2.8749,-2.090366545916667,Ga8Bi4O18,mp-23519
2.9065,-2.04293335109375,V2Bi2Pb2O10,mp-23642
5.8662,-2.7582078465983333,Be16B8H8O32,mp-23883
3.4515,-0.3321458057828569,K2Mg1H4,mp-23956
5.5088,-1.526057615276974,H20S2O16,mp-24118
0.4609999999999999,-0.2830414057291666,Pd4Se8,mp-2418
2.4746,-3.1858040635713603,Ti2P2O8F2,mp-25436
1.5696,-2.6843571626116063,Li4V4P4O20,mp-26963
3.1835000000000004,-1.3825497873189658,Rb1I1O3,mp-27193
0.7277999999999998,-0.8220673187499999,Li2Ag6O4,mp-27227
2.4236,-0.7888587315277777,S32O4,mp-27465
1.0234999999999994,-3.28513825765625,La4Re2O10,mp-27539
0.9705999999999992,-1.6933472410028565,Zr12N16,mp-277
0.4059999999999997,-0.658964649065934,Ba6Si8P12,mp-27887
2.3096,-1.702690444319137,Ti16P8Cl104,mp-27921
4.698500000000001,-3.4615663673366672,Pr2Cl2O2,mp-27984
4.3811,-1.5538509948099997,K4H12O8,mp-28263
2.0299,-1.7024323331020002,Na3Cl1O1,mp-28602
0.7464,-1.002824010739796,Ba32P24,mp-28823
3.4731,-2.8035380156429883,Cs8Mo8F56,mp-28936
5.5612,-2.7228088918452378,Li12P12O36,mp-29195
0.9872,-0.4014117565885417,Tl16Sn8Se24,mp-29237
0.07719999999999994,-0.6553096718181812,Ca18Cd8Bi18,mp-30446
1.2922999999999996,-2.1798837485497224,Sm4S3N2,mp-3062
0.03350000000000008,-0.3142750966666667,Eu2Tl4,mp-30630
5.2808,-2.5925159525931614,Cs1As4F13,mp-30927
0.0333,-0.8848614321733335,Cu1Cl2,mp-30999
0.03110000000000035,-0.6903590280000003,Sr8Bi12,mp-31150
0.029300000000000107,-0.919703731666667,Ca4Ga4Pt4,mp-31152
1.3458,-0.7040957313888891,Tl24Pd8Br40,mp-31287
0.7334999999999994,-2.5503721722500003,Sm4Rh4O12,mp-3317
1.3682000000000003,-1.6627911157142867,Fe4Ni2O8,mp-35596
2.2849,-1.5137084288988103,Pr8P8S32,mp-3954
5.919600000000001,-3.535094440357143,Er2P2O8,mp-4006
1.3951000000000002,-0.5153726330468746,Nb1Cu3Se4,mp-4043
0.5893999999999999,-0.4625227525,Cd1Te1,mp-406
3.8865,-3.0493392615318884,Na8Al6Si6S1O28,mp-41734
1.6887000000000003,-0.13675971499999973,Au4Br4,mp-505366
2.4169,-2.08755934796,K2Au2F8,mp-5309
1.0461,-0.6601949967956503,Rb8Re12Se24,mp-541059
2.2111,-1.6669300766111108,K4Ag4C4O12,mp-541966
0.015200000000000102,-0.7545086737083343,K12Fe8Se16,mp-541998
2.5811999999999995,-2.9704345927499998,Ba2Ta1Bi1O6,mp-545544
6.2813,-3.4387679818663286,Cs8Mg6F20,mp-5476
1.8353,-2.078447467708333,Li2In2O4,mp-5488
1.0163,-1.4940243046465524,Rb1Na7Co2O6,mp-550300
1.7485,-1.0354251245000001,K1Ni1I1O6,mp-550959
1.4082000000000003,-3.0192274600710234,Nd4Se3O4,mp-553278
1.9639,-2.348951988645833,Sm8Cu8Mo16O64,mp-554075
3.4171,-2.409320161728112,Ba1Bi6P4O20,mp-554084
5.2255,-3.1234605615754547,Na4Al2Ni2F14,mp-554507
5.864999999999998,-2.8420303087577636,Li8Be6P6Br2O24,mp-554560
2.3257,-2.9911262679863952,Ti8Fe2P12O48,mp-554569
3.4922000000000004,-3.190954141583333,Ba3Ta2Cd1O9,mp-554669
4.1772,-2.5688599807529773,K8Sn4P8O28,mp-554825
2.9936,-2.1660119539133333,B4N4O8F16,mp-555207
2.9956,-2.5707810276050416,Ba2Mo4P4O24,mp-555338
3.2032000000000003,-2.2584952505952383,Pr4Te8Mo2O28,mp-556092
3.4495,-1.3885702859227331,Cs2Zr1I6O18,mp-556129
0.8731,-2.551357191770834,La12Tm12S36,mp-556841
2.7532,-1.4931682966954023,Rb2V2I4O16,mp-556847
2.5586,-2.1534296206940926,Sm24Si8S48Cl8,mp-556910
3.9229,-2.7519846727941166,Y8Mo12O48,mp-556937
1.6416,-2.1094741237053576,Cr8P4I4O16,mp-557217
2.5715,-1.06448380746875,Hg4Se4O12,mp-557224
1.3023,-3.4282806095585716,Ca2Mn2F10,mp-557426
2.4604,-1.870385652743056,Sm12Si8S34,mp-557561
3.5917000000000003,-2.9719716401250005,Mg8Fe8Si16O48,mp-558339
5.8194,-2.9901044776470584,Ca4B24O40,mp-558358
1.9373,-3.4902141298809526,Sr4Ti5Si4O22,mp-558553
2.6389,-1.652083401130953,Sb32Br8O44,mp-558592
1.6413999999999995,-0.8008519496712039,Ag8Bi8S12Cl8,mp-559071
3.6265,-2.92213931314394,Ba16Zn8B16O48,mp-559138
3.4047,-1.4355312199687504,Cd8Se8O24,mp-559203
3.4306,-1.5094706393269242,Dy4I12O36,mp-559637
3.2227,-2.671044033455882,Ba8V12Bi4O44,mp-559941
3.6002,-3.010066904285714,Ca8Ge4O16,mp-560647
2.5882,-2.6825141327675,Co1Sn1F6,mp-561319
2.7768,-2.004229888196428,K8Mo4As8O36,mp-561554
1.9854000000000005,-1.359076931390526,Ca14Nb2Si4N18,mp-567722
2.3859,-0.8718628556179168,Al4As12Se16Cl16,mp-567734
1.0684000000000002,-0.4920898433976294,Cs2Au2Se6,mp-567913
1.3983999999999996,-1.36600282876302,Pr6Cu2Si2Se14,mp-568801
1.0746000000000002,-1.9057821175807408,K2Sr1Nb6Cl18,mp-569413
0.6692999999999998,-0.9763721575396828,Yb22In2Sb18,mp-570504
0.29389999999999983,-0.8951781925000001,Zr4I8,mp-570506
0.2785000000000002,-1.7643001932291664,La4Se8,mp-570668
0.20299999999999985,-1.6035413858823535,Pr6Ru1Br10,mp-570902
4.2579,-1.789854908103448,Cs1Br1,mp-571222
1.9969,-0.950021853952,Ca1Mg2N2,mp-5795
0.8633999999999997,-0.3770335655517243,Cs1K2Sb1,mp-581024
0.4575,-1.7668565591916816,Cs2Nb8Cl22,mp-582146
0.39780000000000015,-0.8202478486342591,Ti8Te18I8O2,mp-582657
2.1190999999999995,-1.2868897018077263,Ba14B8Se26,mp-583221
3.071400000000001,-2.9896059852800008,Gd2H2O4,mp-625147
4.1026,-3.617536692875,Ca12Sc8Si12O48,mp-6255
5.2668,-0.14437083500666592,B4H12,mp-634117
0.3838999999999997,-0.5313133499999994,Er4Cu12Te12,mp-640885
2.1699,-0.5048991090800001,Ba2Mg4H16Os2,mp-643439
2.1311,-1.5278503246813329,K2H6Pb1O6,mp-643801
2.8597,-2.0250492965,V16Pb32O72,mp-647385
3.0873,-3.7354636221833335,Ca16Zr40Ti16O128,mp-667369
2.4394,-1.1808033383836207,Cs6Re6S8I8,mp-669364
1.3747,-0.9599994566541435,K16Zr12Se61,mp-674338
1.6459,-1.1688651611774437,Rb10Re6S14,mp-676329
3.695,-2.3374303413869875,Na10Mg10In6S24O96,mp-677416
2.3191,-1.8574091638463637,Sb16Cl40F32,mp-680240
2.2415000000000003,-0.5732585136822919,K24B54Se54,mp-680747
1.1788999999999998,-0.7281550717979846,Rb6Nb4As2Se22,mp-683902
3.3139999999999996,-1.2221714816159996,Zn2H8N4O16,mp-696291
4.0956,-3.0749912934384627,K6Nb2H2O2F14,mp-696651
4.5076,-1.037818690053061,P4H32N12O8,mp-697683
5.5550000000000015,-2.81771064345508,Er4P16H4O48,mp-707317
4.935600000000001,-3.3382416211999995,Na2Sc2Si4O12,mp-7074
2.1607000000000003,-1.7692481679310343,Rb8Sn2O8,mp-7118
1.3477,-1.8889371927086689,Fe3P1H6Pb1S1O14,mp-735523
0.7755000000000001,-1.9126571553552625,K2Sb10O26,mp-757115
5.4809,-2.3225668854410944,Nd4H4S12O44,mp-757886
3.4049,-1.0991186471955554,Zn4N8O24,mp-772617
3.2915,-3.257641485178572,Li8Mg4Ti12O32,mp-774752
1.8069,-2.3746358919318182,Sc4Pt4O14,mp-778152
2.7544,-3.369776178559524,K2Ti6O13,mp-8065
0.7694000000000001,-0.37837029516666704,Na4Ag2As2,mp-8411
0.1637000000000004,-0.7741034946153845,Ca10Al4Sb12,mp-8439
3.9665,-2.624524578988096,Li2In2P4O14,mp-8491
2.0478000000000005,-1.0558319915327379,Sc2Ag2P4S12,mp-8616
5.0440000000000005,-2.9792624552346942,Ba1Na2Mg1P2O8,mp-861906
1.7004,-2.637630681728928,Gd4S2Cl8,mp-865182
1.2146,-1.5340699549375003,Hf4Sn4S12,mp-8725
1.1225,-1.5851256459520002,Pt2F8,mp-8943
2.7813,-2.4091808902777783,Sr1Sb2O6,mp-9126
2.5431,-2.6317624954500003,Na2La2Mg2Te2O12,mp-9239
4.462999999999999,-3.095130354583333,Pr2Br2O2,mp-975666
0.048299999999999337,-0.5390421663690473,Sm2P10,mp-9849
0.8121,-1.4577776181771118,Ag2As6H4O18,mp-985701
2.399,-2.400724729047333,Tl2In1Ga1F6,mp-989555
1.2663,-0.17773729419671264,Cs2Na1In1H6,mp-989610
4.221,-2.215897865956,Ca2Tl2Cl6,mp-998787
1.1354,-2.3815271795018185,Ca1Cu2F8,mvc-13028
0.6438000000000006,-0.7144335597619053,P8Ir4,mp-10155
0.4276,-2.0335950910866667,Pr2Te2Cl2,mp-1018941
0.3855,-0.4688420110000002,K2Mg2Bi2,mp-1019105
0.8054000000000001,-0.8998282126375002,K2Pd1Se2,mp-1069706
0.9217999999999996,-0.6164295692949509,Rb2Te1Se4,mp-1077942
2.0368,-0.3919423699025,Nd1Al1H6,mp-1078999
0.8754000000000004,-3.0684787335000014,Ba2Sm1Mo1O6,mp-1095110
0.011800000000000031,-0.24647878158854164,Ag4Sn2Hg2Se8,mp-10963
0.029399999999999867,-3.681909990083332,Ce16Al8O36,mp-1096905
1.941,-0.9036352011000002,K4Sn4I12,mp-1097015
1.716,-0.9324965805325072,Cs4Sn2Se6,mp-1103379
0.7438000000000002,-0.2616299282974137,Rb16Sn16,mp-11054
0.5866999999999996,-0.29531248738636345,Ho16C28,mp-1154
1.1681999999999997,-3.2632026355000012,Ho2Te1O2,mp-1178173
4.496099999999998,-2.2575929487488,Al8Si12H32N8O40,mp-1183012
0.18909999999999985,-0.7154958412500001,Zr1Si1Ru2,mp-1183042
0.20980000000000046,-1.1178267916666662,Er1Sb1Pd1,mp-11836
3.3905000000000003,-1.0396467771297992,Cs4H4S4,mp-1183955
0.2856000000000001,-0.021735702033333082,Er1Mg149,mp-1185250
0.15039999999999987,-0.00985880179999981,Mg149Mo1,mp-1185565
2.8726000000000003,-3.3529365255,Nd6Fe2O12,mp-1186277
0.6643000000000003,-1.1889747723529411,Er6Ni1I10,mp-1188388
0.32069999999999954,-0.7597527542499997,Sm6Cu6Sb8,mp-1188666
0.5253000000000005,-1.3910481174999991,Ho8Te12,mp-1189209
2.6845,-1.26949925357,Na4Cl12,mp-1189265
3.0182,-1.5722054385852275,K4Se4O14,mp-1190160
0.3190000000000004,-3.2161606314772744,Tb6Os2O14,mp-1191300
5.7577,-2.6955348825726517,Na4B2S2O8F6,mp-1191673
2.1696,-1.5305099055649998,Nd6B6N12,mp-1192144
0.08340000000000014,-0.3483002816666663,Tm16In6Co2,mp-1192642
3.0467,-2.8357992525,Mg4Fe4Si4O16,mp-1192819
6.0213,-2.451314351757333,Zr2H12O4F12,mp-1192835
5.4239,-0.5337168003663642,Y4B12H132N28,mp-1194847
3.0813,-2.9603895716361714,Cs12Gd4P8O32,mp-1194926
0.012699999999999934,-1.5043540222048613,Ag8S8O32,mp-1196324
6.9636999999999984,-2.117874688710556,B4H20O8F16,mp-1196968
4.521,-2.861882914282313,K36Al12P24O96,mp-1197607
3.442,-2.4642815620325003,Na4Y6Te8Cl6O24,mp-1197762
5.8248,-2.6550730132463967,Cs4B8P8H4O36,mp-1198124
2.3993,-1.8440987070652184,V12Co18Te6Pb18O84,mp-1198906
5.7765,-3.079545269982966,K5Rb10Ga5F30,mp-1198971
4.0579,-2.4280279312201585,Rb10Er2Mo8O32,mp-1199670
0.6708999999999998,-2.632516267797619,Ba10Cr6O26,mp-1200170
2.1031000000000004,-0.6828710148900842,Hg24P16Pb4Cl24,mp-1200201
0.021300000000000097,-0.29864808218309835,Tm26Zn116,mp-1202379
0.7545999999999999,-1.693774361666667,Ho40Ir8Br72,mp-1202615
2.9731,-2.180152175509745,Cs28Mo32As4O120,mp-1204347
5.7749,-0.007269802895999789,Ge4H16,mp-1205379
4.5236,-3.1693599216640003,Na1Sc1Tl2F6,mp-1205541
2.2374,-3.0288350192499984,Ba2Yb1Mo1O6,mp-1205934
4.8507,-4.353185619146667,Tm4O4F4,mp-1207669
0.3800000000000001,-3.2680110338180284,Sr10P6O26,mp-1208610
2.5644,-1.5027076905149843,Rb4Mo12Cl28,mp-1209508
7.3016,-4.061189377418334,Na2Li2Tm4F16,mp-1210006
0.06879999999999997,-0.6018807357460294,Nb12H2S2I18,mp-1210167
4.4144000000000005,-2.124064943048749,Mn4Pb4S8O32,mp-1210715
6.7376,-3.3292293148585714,K3Na1Be2F8,mp-1211627
0.9839000000000002,-1.415368950589844,K16Ba8Nb16S88,mp-1212599
1.5794,-0.6794841100000001,Ga2Cu2Br8,mp-1212660
3.3318000000000003,-2.60620591529762,Dy4Mo8O30,mp-1213187
3.5772,-2.624300557183908,Cs2Ho2Mo4O16,mp-1213347
1.1997000000000004,-1.0435185520634922,Ca32Si8P32,mp-1214132
2.6625,-2.4951639238091667,Tl1In1F6,mp-1216588