band_gap,formation_energy_per_atom,full_formula,task_id
4.603999999999999,-2.8884210050652626,K12Tb4Si12H8O40,mp-759928
1.0245000000000002,-2.184830989482559,Na7W9O27,mp-763805
1.3219999999999998,-1.923025350384285,Li8Mn12Ni4O32,mp-771112
1.7675,-1.5161214720000005,Li2Bi6I4O8,mp-775430
1.6295,-2.4689327442187494,Li4V8O20,mp-777667
3.5576,-2.657089714700001,Na2Sc2Ge4O12,mp-8054
0.3903000000000008,-0.8107198466233776,Sr2P12Pt8,mp-8507
3.4845,-2.9898109082552087,Ba6In2B6O18,mp-866313
0.05590000000000028,-0.5504018774999997,Sr2Cd1Sn1,mp-867149
1.4219000000000002,-0.8602190729218749,K6Sb2Se8,mp-8704
4.183999999999998,-1.2155040961066657,Na2Si4N6,mp-8973
3.975400000000001,-2.0664803137702776,Li4Fe4H4S4O20,mp-943462
0.7925999999999997,-1.5541819978566664,Sr2Ti2N4,mp-9517
1.8976,-0.6321147547142854,Na8Li4Al4P8,mp-9719
3.6062,-2.8340273859375014,Sr4Mg2Ge4O14,mp-972387
0.09419999999999984,-0.4780334100492608,Rb2Te6Mo6,mp-975237
3.1285000000000003,-1.5294690833660716,Sr4P4S12,mp-9788
5.1311,-2.7908963160433617,Cs1As1F6,mp-9820
5.7111,-2.7959621824816185,Er8S12O48,mp-9841
6.0426,-3.0957692977553792,Cs2K1Ga1F6,mp-989531
4.7796,-2.8725022989553795,Cs2Tl1Ga1F6,mp-989558
1.5638,-0.5864858749280003,Sr4Tc4N12,mp-989627
2.6296,-3.0297127910124995,Mg1Mn1F6,mvc-15860
0.4183000000000003,-0.9501425894759996,Sr3As1N1,mp-1013555
0.5028999999999999,-0.464795857155,Ca1Ga1Ge1H1,mp-1018093
2.2524999999999995,-0.9379568609766666,Ba2H3I1,mp-1018651
5.5447,-2.8371411320572917,Li12B44O72,mp-1020014
3.2704000000000004,-1.558461687376154,Y4N12O36,mp-1020671
0.2656000000000001,-0.4194546441176474,Ce1Fe4As12,mp-1021509
1.8901,-0.8929805836223957,Na16Zn12Se20,mp-1024048
1.2072,-0.30991434958482106,Cd2P2Se6,mp-1079559
3.3041,-2.56623535275,Ba4Br4O2,mp-1079891
1.3775,-2.685330567859694,Na4V8P8O36,mp-1094113
1.249,-0.8321702434635417,Li4Sn2Se6,mp-1095291
0.3448000000000002,-3.6585311352499996,Eu4Zr4O12,mp-1106293
1.9664,-1.3623118869980242,Cs2Pr2Cd2Se6,mp-11118
6.2439,-3.5646763590760693,Cs3Sc1F6,mp-1112965
3.6295,-2.208128815864046,Cs2Dy1Ag1Cl6,mp-1113610
2.2067,-1.4246569102804172,Na1Co2H3Se2O10,mp-1173735
2.0875,-1.2672212446875004,Li6Cu2S4,mp-1177695
0.7755999999999998,-1.236206859296875,Sm4Cu4Se8,mp-11793
0.015099999999999891,-0.020379202999999773,Mg149Ni1,mp-1185599
1.0511,-2.4861289191875016,Nd2Y6S12,mp-1188689
3.1287,-1.5749747611120692,Cs6La2I12,mp-1188821
0.9031999999999998,-0.8327304929166667,Cu4I4O16,mp-1192231
1.4975999999999998,-1.021395823374286,Sr12Li4As8H4,mp-1192357
2.2001,-2.5508287024038467,Ba2Y2Zn6Ga2O14,mp-1192369
1.0233,-1.0846935891551728,Cs8Mn2As4S16,mp-1192853
1.5816999999999997,-2.1387505638956474,Mn4Ag4P4O16,mp-1193494
0.21320000000000008,-0.6105426473333334,Pr8Mg10Ge12,mp-1193603
5.1404,-3.1575685111581517,Ba12P12Cl4O40,mp-1194911
2.6494,-2.463152532579657,Gd4B4S12O48,mp-1194925
3.0791,-3.2223466167129646,Ta14Bi2O38,mp-1195166
2.8645,-1.786569187133334,K4In4Te8O24,mp-1195253
2.1403,-1.142559896476935,Sm4Tl8P8S28,mp-1195564
1.1565,-1.2254792318687495,Ba24Sn24Se52,mp-1196224
4.6282999999999985,-3.005655015302727,K10In6F28,mp-1196816
0.685,-0.4527201509237311,Rb4Sb12Se20,mp-1198114
1.9578,-0.4760242685990088,Sr4P44H112N36,mp-1198273
0.8895000000000004,-1.3179900493318968,Cs3Tm11Te18,mp-1201357
3.3403,-2.597952329265555,Ag4B4F16,mp-12021
2.5836,-3.1956342145625003,Gd16B48O96,mp-1204314
0.5401000000000002,-0.5228673040900382,Cs8Mn8In8Te24,mp-1204512
0.011299999999999866,-0.13387526543650818,Zn216Ru36,mp-1205290
3.8826,-1.6017279230000003,Ca2Tl2Br6,mp-1205521
3.3324000000000003,-2.427582413714,Tl3Ga1F6,mp-1205554
5.3336000000000015,-3.012481492015556,K2Sn1F6,mp-1205960
2.5689,-3.4951633597500003,Ba2Sc1Nb1O6,mp-1206644
2.6234,-2.8883767420000015,Y12Ga12Fe8O48,mp-1208208
1.0792,-1.2787732789993325,Ti16S96Cl24O4,mp-1208924
3.1936000000000004,-2.6085347237787357,Rb2Sc2W4O16,mp-1209239
3.0504,-2.463506607236633,Rb2Na6Fe14P12O48,mp-1209473
5.3969000000000005,-2.758360105128677,Pr4S6O24,mp-1209756
3.0824,-1.5021654706839995,Nd6Si12N22,mp-1209932
4.1987,-1.6842824983500002,Na6Lu2Br12,mp-1210441
4.1585,-3.1283693968141035,Na8Nd8B8O28,mp-1210464
0.5008999999999997,-0.31365387491071417,Mn2Sb4Se8,mp-1210700
3.1521000000000003,-2.275897671111112,Mg24Te20O64,mp-1210955
3.6451,-2.654769021041666,Li2Sm2W4O16,mp-1211004
5.336,-3.0158748819162997,K2Rb4In2F12,mp-1211320
0.00439999999999996,-3.2249265743062505,K8Yb4F20,mp-1211487
3.3775,-2.5977614511666665,K2Li2Sm4Mo8O32,mp-1211510
3.3953,-2.767374416881773,K2Rb1Lu1V2O8,mp-1211699
0.04470000000000018,-1.5070313278285714,K8Zr6Mn1Br20,mp-1212020
1.5633,-0.9137538785096428,Hg6Se4F4,mp-1212164
1.7751,-0.9276652425638892,H32Ru4N12Cl20O4,mp-1212914
0.3879000000000001,-2.441544247187501,Gd12Sc4S24,mp-1213337
0.02120000000000033,-0.5129406378409097,Dy12Ga60Ru16,mp-1213672
2.0923,-1.6149304441519994,Te1Pb3Cl2O4,mp-1217378
2.0084,-1.0195071842083336,Na8S16,mp-12180
2.0164,-3.224788400596,Sr2La2Mn2Nb2O12,mp-1218213
2.1542,-1.9887368122554356,Sm6Mg1Ge2S14,mp-1219149
0.9054,-0.4682499904799998,Re6Br16Cl2,mp-1219236
1.2694,-0.6245863364883333,Re8Os4Se16Cl8,mp-1219275
5.2065,-3.422547913281249,Nd3Si3B3O15,mp-1220077
0.4510000000000001,-0.7704761859999999,Na4Eu1Si2Te6,mp-1221196
3.641,-2.42400339756,Na6Mg9Mo12O48,mp-1221800
2.1567,-2.6385179913252004,K1Cr12Si8Cl1O28,mp-1223595
4.518000000000002,-3.038411313098901,K2Zr1P2O8,mp-1223853
1.9215,-2.4964184381785723,K8Mo8P8O44,mp-1224145
2.5529999999999995,-1.879938184414062,Bi26Mo12As6O84,mp-1228534
0.3034999999999997,-1.90144755915625,Pm8Se12,mp-1232181
2.3625,-2.91108423,Tm4Sb4O16,mp-1238251
3.4087,-1.330368649984326,Cs8Pb2I12,mp-1238804
0.4143999999999997,-2.9010735747500007,Li2La4Os2O12,mp-12451
4.0263,-3.3208981374999995,Li4Ho4O8,mp-12645
0.5937999999999999,-2.4720763669374994,Dy8S12,mp-1270
0.2505999999999995,-2.007403522864584,Eu2Tm2Cu2S6,mp-12728
4.0449,-3.7741372708333336,Tm2Ta2O8,mp-12933
2.2255000000000003,-2.8217118804166668,Nd4Sb4O16,mp-13195
3.0668,-2.378200449089745,Na16Ti8Zn16Ge8O56,mp-14065
3.9818,-2.920882790552727,Na16Zn8Ga8F56,mp-15547
2.9793,-2.1524323034615382,Ba4Zn8As8O32,mp-15739
0.08650000000000002,-0.5174350886666663,Tm8Zn10Ge12,mp-16189
0.14290000000000005,-0.4600865616666665,Li2Ag1Sb1,mp-16238
3.6332,-2.7221999901071428,K6Nd2V4O16,mp-16799
3.9069,-2.6238847410208344,K4Zr2Ge4O14,mp-16871
2.1919,-2.964556428863637,Sr6Er2Rh2O12,mp-17149
0.7103999999999999,-0.0529661495833332,Ge8As16,mp-17524
4.0360999999999985,-1.9312998086875013,Cd4S8O28,mp-17586
1.4227000000000003,-0.9173233757272724,K12Mn2Te8,mp-18246
0.05479999999999974,-0.5248397341266665,Ba2N1,mp-1892
2.9439,-3.23056665,Lu2V2O8,mp-18993
1.3867999999999998,-1.9465898660941672,Na4Mn6O14,mp-19080
2.2831,-1.9420015075000008,Co2W2O8,mp-19092
1.211,-2.34140082756091,Mn2V2O7,mp-19142
2.4343,-2.349250589249999,Cr4O6,mp-19399
3.9073,-3.2006057210144823,Mn4Al8Si10O36,mp-19477
0.001100000000000101,-0.7378481391666677,Ce4Ni4Ge4,mp-20616
0.8193000000000001,-0.3735628745238096,Zn1In2Te4,mp-20832
0.008399999999999963,-0.4876913250000001,Eu2Zn2Si2,mp-21234
0.9106,-0.21269503024999992,K32Ge32,mp-2146
2.9907,-3.003530549821428,Sm4Al12Pb8O32,mp-21567
2.274,-3.031756606904444,Li4Mo2F12,mp-22439
1.7043,-2.806338778,Sr4Nd2Bi2O12,mp-23093
3.5961,-3.2174914161369235,La6W2Cl6O12,mp-23117
3.0024999999999995,-1.6257981136625002,K2Sn4Cl10,mp-23539
4.6108,-2.6602616141787383,Sc4P6H6O18,mp-24217
2.1097,-2.1264559277727564,V4B4P8H20N4O36,mp-24710
4.6625999999999985,-2.579661107411147,Rb4Ga4B4P8H4O36,mp-24761
1.5415,-2.7173472504761227,V2P2O8F2,mp-25440
1.0239,-0.3069966481034485,Cs1Au1,mp-2667
2.1504,-2.6911570425595235,Li4V4P16O48,mp-26955
1.056,-0.8013970591428569,K12Ge4Te12,mp-27331
3.7888,-1.6714157700249657,Rb2Ge2Cl6,mp-27369
0.2884,-0.9163982352681992,Cs2Sn1I6,mp-27636
3.2539,-1.0474153527777783,Cd4I8O24,mp-27640
2.2733,-0.7546910241765884,B1P1S4,mp-27724
4.1295,-3.134426575625,Sr2Be6O8,mp-27791
2.5353,-0.5552772097083344,C1S14,mp-27814
2.8633,-0.7919066505362502,S8Cl8,mp-28096
1.0223,-1.0383998939409724,Ba8As8Se20,mp-28348
1.9935,-1.0942438810689654,Rb4Ge4Br12,mp-28558
1.1700000000000002,-0.6056489339107141,K2Sn4Se8,mp-28769
0.06349999999999989,-1.289774555882353,Y6Ir1I10,mp-28864
3.3972999999999995,-2.4314350186933336,Pr4N2Cl6,mp-28969
0.8869000000000002,-1.5015607471875008,Ta2I4O2,mp-29027
5.1672,-3.55101530825,Y6B6O18,mp-29205
3.2615000000000003,-2.9515784033750014,Gd12Ga20O48,mp-2921
1.2286,-0.8987284444999993,Ta12Br28,mp-29412
0.8103,-0.7472071088333333,K4Au4Br16,mp-29694
4.3281,-2.9237238616388885,K12Si12O30,mp-29825
1.7818,-1.4567035192857145,Hg4W2O8,mp-29894
5.1775,-1.051064305,Be2Br4,mp-30139
1.0633,-1.3861492572499998,Hg2As2O6,mp-30284
4.5806,-0.8169521047099995,Tl1Cl1O4,mp-30530
2.3907,-0.17442269109277753,B80H104I8,mp-31003
5.0884,-2.198213914852273,Na4S4O14,mp-31269
1.1420000000000001,-0.510687475083128,Cs2Sb4Se8,mp-3312
4.4803,-2.510494727281745,P16Pb8O48,mp-3476
2.4355,-2.4299216002675004,Sn1Hg1F6,mp-36508
4.1301000000000005,-2.6653913455416665,K6B6O12,mp-3919
1.0202,-0.6034655441741075,Cu6P2S8,mp-3934
5.0016,-2.7071833100000005,Ca2C2O6,mp-3953
1.6313000000000004,-0.5167528530468743,Ta1Cu3Se4,mp-4081
5.1563,-3.0346233481944447,Li4Si4O10,mp-4117
4.199400000000002,-3.4968165242857148,Ca8Si4O16,mp-4481
3.079699999999999,-3.6098240173124987,La2S1O2,mp-4511
2.2143,-2.643589495227273,Sr8Pt2O12,mp-4598
3.7834,-3.052300452751852,Li3Mn3Ga3F18,mp-504460
1.899,-1.500475071137931,Rb8Pb4O8,mp-504598
3.3038,-1.4675149165912895,Nd2H24N6O30,mp-504828
2.8432,-1.2585024626293106,Cs4Zn6S8,mp-505633
4.1979,-1.8045058808772028,Rb8Na4H20C8O32,mp-505772
2.8468,-2.4764790925000004,Sr4Cr4O16,mp-510607
1.972,-1.0056959585689655,Cs2Na2Te2,mp-5339
2.4424,-2.7077957687981256,Ta4Hg6S2O8F20,mp-541094
0.4356,-0.3839048171562496,Bi2Se3,mp-541837
0.0040999999999993255,-0.6232518359374994,Ce20Ge8Rh4,mp-542005
5.2635,-2.7919743535778143,Rb4Al4B4P8H4O36,mp-542130
0.6847999999999999,-1.870766809181819,K4Cu2C4O12,mp-542332
0.9072,-1.7171972734374998,Nb2Br4O2,mp-550070
1.3382000000000005,-2.3655689606250005,Dy1Bi2Br1O4,mp-552992
2.1538,-1.669242718983517,Ba12P8S32,mp-554255
2.6810000000000005,-1.5659709002884623,Bi20I4O28,mp-554445
4.3948,-2.701734821178286,Sb2P2O4F12,mp-554701
2.2108,-0.9480909541979172,K8Ge8Au8S24,mp-554859
1.8916,-2.0985550445375,Pr32Sb8S60,mp-554935
4.553,-2.638862173976191,K2Ga2P8O24,mp-555554
3.0513000000000003,-2.4486050880465844,Na2Cd3P4O14,mp-555851
1.0149,-1.026601002381667,Os4Cl16O4,mp-556006
5.1459,-2.9776790714114583,K4Sr4B20O36,mp-556250
1.3943,-1.4890449147587719,Ti16S32Br24O4,mp-556341
1.9434,-2.9459997923139998,K2Cr2F6,mp-556365
1.2594,-1.2737293190842642,K16V4P8S36,mp-556552
3.4890000000000003,-2.581981872961371,B20Pb8Cl4O36,mp-557103
3.9726,-2.42585923555,K8Li32Al8O32,mp-557268
3.812,-2.205790339725,Na6Li2W2O10,mp-557309
1.1719000000000002,-1.82504144137025,As4S4I8F24,mp-557628
2.7562,-1.604802908897059,Ni6Te2Mo4O22,mp-557988
2.7567000000000004,-2.7406479897023805,Al8B8Pb8O32,mp-558137
2.3515,-2.456483091897626,Rb4Nb6Cl14O10,mp-558393
2.9159,-2.9488592462036003,Ca2Mn8Si10O30,mp-558800
0.4081999999999999,-1.6598571081372546,In7Ge1Ir1O8,mp-558992
3.0602,-1.7445479794486076,Rb8Te4H24S4O40,mp-559096
3.5646,-2.1155665683097733,Sm2Mn2Se4Cl2O12,mp-559195
2.9190000000000005,-2.606496077667955,La8S6N2Cl6,mp-559256
2.0348,-2.320015188694325,Cs1V1S2O8,mp-559316
3.5216000000000003,-3.32513872362611,Ba10Ta4Cl4O18,mp-559378
1.8005,-1.79079641186926,Sc1Cr2Ag1H4O10,mp-559606
1.0065,-2.5075202479420002,Sr4Mn4O12,mp-559975
2.548,-1.8284269325000009,Nd6Si4S16I2,mp-561126
0.0754999999999999,-1.4738979211904768,Ce8P8S32,mp-561261
0.5106999999999999,-2.2343457333512937,Pr20S38,mp-561375
1.4405,-2.7098117735535707,Nb4Co2P12O42,mp-562076
3.0746,-1.9451694742578132,Mo12S12O72,mp-565836
0.7508999999999997,-1.1257861063100003,Al8Sb16Te16Cl32,mp-567743
2.0003,-1.0158829986250002,K32Ge8Se32,mp-568847
1.2839999999999998,-1.3883360717968751,Tb1Tl1Se2,mp-569507
1.6545,0.0,Se64,mp-570481
0.8347000000000002,-1.2156138960267855,Ba4Ge2Te4Se4,mp-570803
4.3818,-1.2357075099999997,Li2I2,mp-570935
3.9175,-1.98091868517669,Cs4K8Bi4Cl24,mp-571371
0.5562,-0.4402514962284485,Cs8Sb8,mp-573514
1.243,-0.9362058929202582,Cs4Mn2Se4,mp-573947
5.0168,-2.4815827953094485,Rb12Y4Cl24,mp-574571
5.4034,-0.3754302174496118,Cs2Li1Ir1C6N6,mp-574653
1.3272,-1.3969570469612071,Rb1Nd1Te2,mp-5808
2.3785,-1.2131268478620691,Cs12Cu8Br20,mp-582423
0.8115999999999999,-0.9445656624659864,Sr12In4P12,mp-616026
4.1593,-2.945056782155,Nd2H2O4,mp-625359
1.4211000000000005,-0.7745272078166664,K6Na2Sn6Se16,mp-628185
0.5848,-0.3526936293103452,Cs20Sb32,mp-628742
2.8534,-2.06470241090625,K16Zn8Ge8O32,mp-6386
1.6088999999999998,-1.175157155008419,Cs1K5Zn4Sn5S17,mp-641018
0.2015999999999996,-0.3459474291375,Mg4Co2H10,mp-642660
3.6458,-0.6168844961433333,H8I2N2,mp-643062
5.3245000000000005,-3.2048885270625003,Sm16B48O96,mp-645338
2.2103,-0.1529833073437498,Se16Br64,mp-651332
0.3182999999999998,-2.88329730925,Li2La4Ru2O12,mp-6644
4.9274,-2.891437753806124,Na12Mg12P12O48,mp-6699
4.9717,-3.36697538075,Ca2Mg2Si4O12,mp-6766
2.9901000000000004,-2.56099918685,Na4Ca8Mg8As12O48,mp-677573
1.7240000000000002,-1.1976774237486312,Rb16Ta16P16S96,mp-680498
0.22319999999999984,-1.4571972570312504,Nd4As4Se4,mp-690674
3.2920000000000003,-2.395813246546429,Na2P6Pb8O24,mp-690977
2.1864,-2.6566616606349207,Ca2Fe3Sb1P6O24,mp-695492
3.8891,-2.2988203841778576,Ba4Re8H8O36,mp-695984
2.4134,-1.2664639182564659,Cs2Na2S2,mp-6973
2.9596,-0.512289078034,Ba8Al4H28,mp-698114
2.3223,-2.7447537324475144,Ti2Mn2Fe2P6O24,mp-699376
1.7437,-2.1708625896174567,Rb1Gd1S2,mp-7045
2.4304,-2.0319668216176483,Fe16Mo24O96,mp-705435
4.5474,-3.29046085,Li4Tb4O8,mp-7137
1.3025,-0.8139300398242852,K4Re12Os12Se32Cl24,mp-720110
2.4101,-3.4157390962187515,La2Se1O2,mp-7233
0.5783000000000005,-2.283153528749999,Ca4Bi4O12,mp-755893
4.7385,-1.2975094124363178,P6H60N14O24,mp-759344
2.5096,-2.084250914208333,Na8Sn4O12,mp-761184
1.5725000000000002,-2.433348906413277,Li1V1Cr1P2H2O10,mp-765311
0.9667,-2.576105419659092,Tb4Pb4O14,mp-769211
1.9195,-2.381786792442,Mg2Mn2O6,mp-770618
0.889,-2.2204926301002605,K2Mn2P2C2O14,mp-773432
2.3797,-2.0997736715205617,Bi18P6O42,mp-775485
1.79,-2.4273950893750005,Li4V1Cr3O8,mp-776615
5.8713,-2.9885536650000004,Li4Be2Si2O8,mp-8070
3.3344,-3.006664491125,Na2Nd2O4,mp-8128
2.0733,-2.510988323025211,Fe1P6W3O24,mp-850225
0.9958999999999998,-2.311350202931429,Mn9Zn6Si4Sb2O28,mp-850230
0.9415999999999998,-0.9104298086375004,K2Pt1Se2,mp-8621
0.030399999999999764,-0.7414344034759999,Sr4Ga2Ge2N2,mp-867219
1.2134999999999998,-1.8238897755357133,Ca4As2O1,mp-8789
0.7624999999999997,-0.8552717099519995,Ca2Zn1N2,mp-8818
0.8392999999999999,-0.4032223672,K4Ge2As4,mp-8930
0.5479999999999999,-1.5233810369479173,Na2Zr2Cu2S6,mp-9107
3.8751,-2.4342104394300006,Sm2C1N2O2,mp-9499
1.0943,-0.8511131566666664,V1Br2,mp-971787
4.2440000000000015,-1.312394654931428,Si6N8,mp-988
2.208,-1.7638163830249658,Rb2Sn2Cl6,mp-998611
1.2327999999999997,-1.3826825424218754,Sm1Tl1Se2,mp-999137
3.3941,-0.816516155565,Be4Ge4N8,mp-1019550
4.6759,-2.1728203652777767,Ba2S8O26,mp-1019557
4.0962,-2.816614318690476,Sr2Ge2P4O16,mp-1020628
2.9561,-2.295543859722222,Sr1Ge1Te1O6,mp-10341
2.7752,-1.0335315663988094,Al1P1S4,mp-1071955
2.1186,-2.643627432291667,Sc2Ag2O4,mp-11022
0.23150000000000004,-0.7905954885714286,Sr4Zn4As6,mp-1104042
0.44010000000000016,-0.8210859872500009,La6Bi8Au6,mp-1105333
1.2772,-2.2703040519806663,K2Ag1Rh1F6,mp-1111950
2.782,-2.47369678719738,Cs2Li1Gd1Cl6,mp-1112624
2.6733,-1.4139090301954025,Cs3In1Br6,mp-1112651
2.8918,-1.2695220045413793,Cs2K1As1Br6,mp-1112792
0.4184999999999999,-0.8871780398571426,Ca3P6Ir6,mp-11168
3.8625,-3.029576947,K1Sm1O2,mp-1178133
0.5261,-0.014448265333333175,Mg149Be1,mp-1185586
1.0684,-1.6245944354224544,Ba4Sm2In2Se10,mp-1188304
2.2482,-1.18872057453125,Li4Cd2Ge2S8,mp-1189383
1.0570000000000004,-1.6212024482002316,Ba4Nd2In2Se10,mp-1190093
3.7158,-1.161364599020833,Fe2H10C2N2Cl4O4,mp-1190513
1.9205,-1.0130331530561227,K4Sn4P4S16,mp-1193412
4.6845,-3.5412572659821424,Ba2Hf2Si6O18,mp-1194160
3.8271,-2.16129007966875,Na4Sc4Se8O24,mp-1194561
0.569,-2.861468147228095,Ba4Mn4P4Cl4O16F4,mp-1194882
0.2839999999999998,-0.4041101054101564,Tl16Pb4Se12,mp-1195087
3.7966,-3.0153615090476187,Sr10V6Br2O24,mp-1195674
2.8968000000000003,-1.2138832502710457,Rb12Ni8N28O84,mp-1196286
0.10280000000000022,-0.5713456464285709,Sc114Pt26,mp-1196981
1.4760999999999995,-1.1673078396546157,Ga32Sb28Te32Cl116,mp-1197560
2.4261,-1.0651722303203135,K6Sm2Ga6B24S24I2,mp-1197963
2.5942,-2.0636208062692307,Sr10Sb44O76,mp-1197996
5.3395,-2.231783701618464,Mg4Be6P6H26O38,mp-1198243
4.8624,-2.657947957814503,Li8B32Se4O60,mp-1198324
2.0649,-0.5145033263146666,Li4P14H54N18,mp-1198596
2.0161,-2.291239400651011,Rb8V4S8O38,mp-1198857
4.2410999999999985,-1.7370419139687503,Li4Ga4Se8O24,mp-1198930
1.5912000000000002,-2.821203857031607,Li6Mn2P4O12F8,mp-1199210
5.6461,-2.1056331829831585,Rb2P4H10O16,mp-1199511
1.5871,-0.42771976148795937,Rb8Ag8Sn4P12Se36,mp-1199727
2.2876,-1.7535178549452637,Ba8H32Pt4O32,mp-1200998
2.3834,-1.8006154388107645,Tl4Mo6Se2O24,mp-1201686
1.5438000000000005,-1.6426307005288894,Dy16Te12N8,mp-1201962
0.0020999999999999908,-3.3719423804639175,Yb8Ta50O136,mp-1202362
0.9601,-0.5095973720833334,Cd32As16Br24,mp-1203526
0.17159999999999975,-0.08846556975000013,Tc8I32,mp-1203591
1.3068000000000002,-1.4963748113649429,Rb12I4O20,mp-1203699
1.9048,-1.1741712749460778,Rb12In2P6S28,mp-1204523
4.3207,-2.672017921346007,Mg45Si32H58O138,mp-1204533
3.9972,-1.3673133454234687,Tl4Zn2H24Se4O28,mp-1204821
1.2009999999999998,-0.4919927709950741,Rb4P4Pd2,mp-1205714
6.146,-3.6051407721425,Li1Ta1F6,mp-1206962
0.058300000000000025,-0.69095096204,Yb6Sn2H4,mp-1207571
3.0464,-3.369463884069294,Sr4Al6Se1O12,mp-1208447
3.2815000000000003,-2.928996525625,Sr8V4Br4O16,mp-1208766
3.0899,-1.9903603518985724,Rb4V4Se4O20,mp-1209169
4.724,-2.978472514308587,Rb3Ho1P2O8,mp-1209402
3.0438,-2.3937577402346744,Rb20V12O40,mp-1209602
6.8134,-3.713435936051035,Rb8Ca8Be12F48,mp-1209683
1.9536,-2.8636173552500015,Pr4Mg2Pt2O12,mp-1209742
0.9781,-1.8395830104516069,Pr12Se12N4,mp-1209746
7.235,-4.050040496585,Na2Li2Er4F16,mp-1209986
0.19669999999999987,-1.0506452757605829,Nb8P4Au2S40,mp-1210205
0.17300000000000004,-2.500376780867428,Na4Mn4Cd2P6O24,mp-1210502
3.0906,-3.3845368689999997,Pr12Lu8Ga12O48,mp-1210514
0.4164000000000003,-2.097779713541668,Li8Tc4O12,mp-1210877
0.9725,-1.9489704704419992,Li2Mn4Te2O12,mp-1210977
0.0020999999999999908,-0.11328611220512876,K6Na14Tl18Cd1,mp-1211804
3.3975,-3.1198370493843743,K32Cr16F80,mp-1212394
1.7627000000000002,-2.9673743979166662,Gd6In6O18,mp-1212640
0.7111000000000001,-1.2896416977777772,Er8Os2Br8,mp-1212840
1.0936999999999997,-2.5925155856973787,Cs4Eu4Cl12,mp-1213256
0.15569999999999995,-1.9010532488418028,Cs2Sr2Ta12Cl36,mp-1213360
3.6944,-2.9685018791704736,Cs8Fe4F20,mp-1213714
4.016299999999998,-2.730465228556599,Ca4P6Pb6Cl2O24,mp-1214153
2.6908,-2.614751119458333,Ca12In8Ge12O48,mp-1214247
3.5403,-2.0444733216666666,Ba4I4Br4,mp-1214491
2.4674,-3.5334521951822233,Ba8Na8V8F48,mp-1214563
4.7219,-2.937626078545475,Cs4Sb2F10,mp-1214796
0.5900999999999996,-1.5614268969047616,Zn6Ni8Sb4O24,mp-1216023
2.4376,-2.116742770294643,Y18Al10S42,mp-1216384
3.1788,-2.531101445833334,Ta2Tl2W2O12,mp-1217830
5.0518,-4.345009788055681,Sr7Y6O1F30,mp-1218554
2.4464,-1.3848384226939658,Rb1Li1Zn1S2,mp-1219554
2.1413,-1.1449808563365385,Na4Ge2Pb1S6,mp-1221169
2.9034000000000004,-2.508193465329672,Mg2Co4P4O16,mp-1222089
4.479,-3.2833500284375,Dy4C2O10,mp-1225362
0.4421,-1.486413765833334,Co2Te2O8,mp-1226075
0.6038999999999999,-2.6560403227062173,K20Mn8B8P20O84,mp-1226339
0.23649999999999996,-0.5820186244684966,Cs6Sb10Se18,mp-1226687
2.1371,-2.4903425412,Bi1Sb3F20,mp-1227565
1.1844,-2.6466453915277777,Ba8Sr4Dy4Co8O30,mp-1228722
0.2171000000000003,-0.246405380833334,Al1Re1Ge1,mp-1228817
6.1166,-1.8848439415692853,Al2H30O12F12,mp-1229104
1.9154,-2.8973568353571433,Ba12Gd2Re6O36,mp-1229259
0.1452,-1.6257085232291668,Pm4Se8,mp-1232221