band_gap,formation_energy_per_atom,full_formula,task_id
1.6030000000000006,-1.4365853478645836,Tm2Cu2Pb2S6,mp-1216911
4.3546000000000005,-2.4832545589390382,Sr3Se2Cl2O6,mp-1218418
2.3082000000000003,-2.6622348459126988,Sr2Fe3Sb1P6O24,mp-1218841
5.1369,-3.168695292498315,Rb2Al2Ni2F12,mp-1219582
2.1023,-0.312206957388326,Rb2Li2Mn2B8H32,mp-1219628
2.4500999999999995,-3.6643954132954564,Pr4Sc2Nb2O14,mp-1219870
1.8314000000000004,-2.124795193625,Ho2Te1S2,mp-1223956
0.30820000000000003,-0.9639188796080004,Fe2Cl8,mp-1225059
2.7927,-1.9781683433333324,Cd4Mo1W3O16,mp-1226936
3.1142,-2.8662003439473684,Ca2Tm4Ge8O24,mp-1227267
2.3421000000000003,-3.3655940887222227,Ba4Ta10Co1O30,mp-1228585
2.0493,-2.8641317246978577,K8V8P8O32F8,mp-1239185
2.1138,-0.36673237744000003,Zn6Mo2N8,mp-1246430
4.7747,-3.6149857066666655,Sm24Si16B8O80,mp-13500
0.01910000000000034,-0.4885780249999995,Ba8Ge4,mp-13922
7.2288,-3.7859748999504217,Cs2Hf1F6,mp-13948
0.9853,-1.0024362808333338,Ba32Si8As32,mp-14001
4.4244,-3.2812899792708343,Sm4Be4Ge2O14,mp-14416
2.6018,-1.82052123435,K8Na32Ga8O32,mp-14428
5.1938,-2.891409427978536,Cs4Be4P4O16,mp-15395
0.2427000000000001,-0.1821430839999998,Li3Al2,mp-16506
0.029399999999999867,-0.2739367249218749,Cu2Sn1Hg1Se4,mp-16566
3.7375,-3.1093106927115386,K18Er6Si12O42,mp-16597
0.4837,-0.3908875547222223,Na20Ge4As12,mp-16861
1.6626000000000003,-0.9712487389090908,K12Cd2Te8,mp-17698
2.3068,-3.41525966044922,La8Si4Se4O16,mp-17834
1.9475,-2.7528086971255035,Rb4V4P8O28,mp-18436
3.6641,-2.8023811262083336,K8Zr4O12,mp-18449
3.789,-2.6433003808402376,Cs4Mo4P8O28,mp-18496
1.6685999999999996,-2.2774152366666662,Cr4W4O16,mp-18785
3.0493,-2.075510098107144,K6Na2Cr4O16,mp-18964
4.0469,-2.63206282823052,Li2Mo2P4O14,mp-18987
2.9583,-3.236875224166667,Tm2V2O8,mp-19068
2.3341,-2.970784232775334,Ti2Mn2O6,mp-19082
1.5191,-2.9434778242857145,Ba8V4O16,mp-19096
1.1363000000000003,-1.3530925885416671,Fe1Ag1O2,mp-19225
2.4945,-3.23012584525,Dy4Cr4O12,mp-19381
2.9534,-2.684240351536567,Rb8V4P8O32,mp-19481
0.915,-2.23547398930381,Mn4B4Pb4O16,mp-19882
0.5592999999999995,-1.7930318558823528,In6Ga2Pt1O8,mp-21084
2.2358,-2.354582313452382,Cr4B4Pb4O16,mp-21100
0.1976,-1.4479781101500009,K2Cu8As6O24,mp-21578
0.3793,-0.9513610269253469,K36Fe8Se28,mp-21960
3.2761,-3.6111159748393336,Na1Zr2Co1F11,mp-22091
1.4436000000000002,-1.9348079816666663,Li8Pb2O8,mp-22170
1.5625,-1.2637285243750007,W2S4,mp-224
2.8686,-0.9932481921733336,Hg4Cl8,mp-22855
2.7385,-0.8387473091300002,Hg2Cl2,mp-22897
0.9825,-0.989811449277778,K2Re1Br6,mp-23021
3.5255,-1.26469161225,Na1I1,mp-23268
4.541,-0.2933436774399999,Tl2B12H12,mp-23691
7.063,-1.7177181750871422,H16O4F8,mp-23798
3.714700000000001,-0.8726591439733331,Sr7H12Br2,mp-23828
6.9619,-2.55227570725,K2H2F4,mp-23846
3.123,-1.146643017864667,Li2H12Br2O14,mp-23985
3.0141,-0.7257396015878577,Mg16H64N32,mp-24383
5.1256,-2.4465977064074997,Ba4H4Cl4O4,mp-24565
5.388,-2.2018123394578155,Cs4Al4Cl16,mp-27260
1.0976,-1.79737838284,K2Mn1Cl6,mp-27304
3.1866000000000003,-3.286661711285716,K4Zr5O12,mp-27377
2.2779,-0.058421403035714636,P2I6,mp-27529
0.8902999999999999,-1.5609724281467998,Na14Mn2O9,mp-27569
1.7742,-0.6448316186949999,I2Cl6,mp-27729
0.8283000000000005,-0.02701264668367287,Ag3P11,mp-27821
1.8548,-3.3258603587499986,La6Re2O16,mp-28121
2.5376000000000003,-0.8868602908908046,Rb6In6I24,mp-28198
1.8097,-0.4747311861699997,H16I12N4,mp-28281
3.1975,-1.5271144714890283,Rb8Cd2Br12,mp-28315
0.5627000000000001,-2.0722573335711107,Sb2I4F12,mp-28431
0.6946999999999999,-0.5362976420578704,K6Ag30S18,mp-28468
0.5641000000000003,-0.6016736128684372,Tl20Se8Cl4,mp-28920
0.9005999999999998,-1.2183342594642863,Ba2Pd4S8,mp-28967
5.3638,-4.180468674039333,Sr10Zr6F44,mp-29085
1.4578000000000002,-0.6760006847421494,Cs4Au4Se6,mp-29194
3.0575999999999994,-2.035165688863,La24Br48N8,mp-29197
2.2483000000000004,-0.7807537494999999,Li4Ga4I12,mp-29345
0.9918,-0.4687762943888889,Na4Ga12Te20,mp-29462
0.16019999999999968,-0.2224161286764712,La1Fe4Sb12,mp-30073
1.6351,-0.5130571257002319,Li4B4Se10,mp-30100
1.4507,-0.7575055392241378,Rb2Au2Br8,mp-30996
5.3947,-4.150263640285333,Hf6F24,mp-31033
0.0004000000000008441,-3.9569376841964288,Ce10O18,mp-32613
0.4721000000000002,-2.468795478750001,Pr4Eu2S8,mp-34309
3.0589999999999997,-0.923266124956364,Li12W2N8,mp-3503
1.5829999999999995,-1.5082042844062509,K12V4S16,mp-3529
5.1111,-3.3927241364285714,Mg2Al4O8,mp-3536
1.4876,-2.4289798901371427,Mn2V4O8,mp-35475
1.0812999999999997,-1.4812472705357145,La5Tl1Te8,mp-35907
3.7004,-3.1484324812500004,Li2Ta2O6,mp-3666
5.6893,-3.01644596186508,Sr8P16O48,mp-3765
4.8624,-2.8897541233925006,Li1Sb1F6,mp-3980
0.1255999999999995,-1.3287951200862071,Rb1Ce1Te2,mp-4240
3.5148,-2.3614446853236606,La8Se12O36,mp-4350
5.667999999999999,-2.8225212558012824,Li8B16O28,mp-4779
0.029600000000000293,-0.7473157575824175,Ca4Ni14P8,mp-510001
1.1848,-1.4184072435546875,La6Cu2Ge2Se14,mp-510011
0.6269999999999999,-0.6803900892795569,Rb7Au5O2,mp-510076
3.4836,-2.4751064148076924,Ba4Ga8Ge8O32,mp-540585
3.9956,-2.9940217913020835,Nd4Ge4B4O20,mp-540996
1.0878,-0.7302077473333337,Ti2I8,mp-541013
1.9930000000000003,-1.7376386416059997,K12Ir4Cl24,mp-541141
6.6561,-3.1628075403689992,K8Hf8H16O8F40,mp-541298
2.0915,-1.0779278610401788,K12Ga4Se12,mp-541687
0.6932999999999999,-0.9556912102681993,Cs2Pd1I2Br4,mp-543024
2.7404000000000006,-3.2904119042045465,Pr6Sb2O14,mp-5448
1.2339000000000002,-2.2299453500000004,Pr1Bi2I1O4,mp-545728
3.5219,-2.708512668333334,Sc2As2O8,mp-546125
2.3014,-2.4540211717933342,Ba2Cu1Cl1O2,mp-551456
1.1636000000000002,-1.2128814417448746,Rb4Nb4P4S22,mp-554147
0.0041999999999999815,-0.7923763310416667,Ag16Te4O20,mp-554357
0.3681000000000001,-2.182829016041667,Pr4S8,mp-555096
2.4157,-1.5035853761565936,K6Nd6P8S32,mp-555172
1.7618,-1.8139000357031252,Ho6Cu2Ge2S14,mp-555509
2.9615,-2.919177547100804,Rb4Fe4F16,mp-555667
3.9764,-2.7880697974652797,Sr2Ga4B4O14,mp-556046
2.5423,-0.9731181119642855,Ga8Bi4S16,mp-556712
3.2416,-2.9298656389835167,Ca6Cr6P8O32,mp-557821
1.1062,-2.7587924644576733,Ba8Cu4P24O72,mp-558012
0.5303,-1.9319879641266664,As2I4F12,mp-558244
1.1496999999999993,-2.4710589913616072,V2Sn2P2O10,mp-558344
4.1476,-1.882705068813333,K4I4O8F8,mp-558861
3.9887,-2.9798186372743065,Pr9Ge9B9O45,mp-559590
2.512,-1.8098284296428573,Sm6Si4S16I2,mp-560356
2.9529,-1.4002352103894833,Cs4Os4N4O12,mp-561383
1.6563,-0.8772007712126438,Rb4Sn4Hg6S16,mp-561434
2.9173,-2.5404433284375,Li8Co4Si4O16,mp-561743
4.9957,-2.601084469280703,Cs14Ni8F30,mp-563023
0.1088,-2.032116418259,Mn32O48,mp-565203
0.08740000000000014,-2.717581013785716,Eu4P20O56,mp-566534
2.2698,-0.5003733214583335,In4I12,mp-567789
1.3691999999999998,-0.2421038930848212,Tl4Bi4P8Se24,mp-567864
2.2093000000000003,-0.664302351507731,Sn4Hg24P16Cl24,mp-568612
5.437900000000001,-2.9534946255066665,Ba1Cl2,mp-568662
1.4490000000000005,-0.244404674654018,Tl4Cu4P4Se12,mp-569129
1.3715000000000002,-1.3477729989713538,Sm6Si2Cu2Se14,mp-570045
0.2549999999999999,-0.4937603637202384,In5Ag1Se8,mp-571103
0.5940999999999996,-0.3266138115885422,Pd24Se24,mp-571383
2.5459,-1.3424686009789586,Hf2Hg6Se4Cl12,mp-571445
0.13149999999999998,-1.4103367788870935,Rb4Cu2Br4Cl4,mp-571638
2.8168,-2.2556716355,Na1Cr1O2,mp-578604
0.7391000000000001,-0.4902428089367816,Cs24Al8As16,mp-582723
0.6052999999999997,-0.14271586857142893,Re24Te60,mp-583070
1.5215,-1.9127677608087488,Ho12Se12N4,mp-607806
1.3654000000000002,-1.2664455397605372,Rb2Pb2I2O12,mp-616564
0.3485000000000005,-1.191321664285157,K3Cr11S18,mp-654008
3.0594,-3.0669915721949415,Li4Ti4P4O20,mp-6668
3.4155,-3.12111852275,Ba2Ho1Sb1O6,mp-6687
2.3629,-0.972568053472906,Cs6Bi4I18,mp-669458
3.964,-4.077677278,Er16O24,mp-679
5.1858,-2.697892507113095,Tl8B40O64,mp-680122
1.2863000000000002,-0.21900458163903075,Cu36P48Se48Br36,mp-680446
0.8283999999999999,-1.647274045449001,K8H8Ru4O20,mp-696941
4.1225,-0.8976271433163638,Mg4H24Br8N8,mp-697170
1.9593,-3.235434842846155,Na4Ca34V4P28O112,mp-706342
4.6642,-2.963523652585625,Na4Al2Si6H2O18,mp-706617
3.0232,-1.0914129355468751,Li4Al4Se8,mp-7117
1.5373,-1.1075066790024994,Sr24Cr8N32,mp-7214
2.1036,-2.1221714639375,Er6Ga2S12,mp-7290
3.2521999999999998,-2.5885082582933334,Sn4F8,mp-7457
3.6236000000000006,-3.0508123619612078,Rb1Dy1O2,mp-7476
0.7610000000000001,-1.4625684702500004,Cd2Bi2O6,mp-755478
3.4427000000000003,-3.791470906052632,Lu6W1O12,mp-756479
4.313,-2.647294822395606,K6Ca2P2C2O14,mp-756968
1.2346,-1.6013879690790909,Na40Fe8H8O32,mp-758930
1.0228000000000002,-2.5047811375958333,Ba10Mn10O28,mp-759718
1.1596000000000002,-1.4966258286249996,Na40Tl8O32,mp-7652
1.7292000000000003,-0.817789262,K6Si2Te6,mp-7657
3.4499,-1.7788208083293942,K8In4H8Cl20O4,mp-766966
2.3813,-2.5034022738541686,Ba2Ga8O14,mp-769971
3.274,-3.9380315678645834,Lu8Ti4O20,mp-771031
3.8416,-2.8655786062500006,La2As2O8,mp-772261
0.012399999999999968,-2.7781793692474754,Na9Fe10Si20O60,mp-775293
0.9776000000000002,-2.1634383518750004,Ba4Cd4O8,mp-7899
1.3937999999999997,-1.952415035625,Sr4Dy8Se16,mp-862729
1.0152,-0.4683045834873507,K2P2Au2Se6,mp-862850
6.7345000000000015,-4.489659124126667,Yb2F4,mp-865934
0.8231000000000002,-0.11341966059523755,Cu4P8,mp-927
1.0065,-0.4908308616666665,Li2Be2As2,mp-9562
0.2037,-0.29145694209667505,Rb1Zn4P3,mp-975140
0.15579999999999972,-0.6260120691666667,Sr8Sn4,mp-978
0.9817,-0.2878859237500002,Nb1Cu3Te4,mp-991676
1.8255,-1.2640012805747127,Cs2Tl1In1Br6,mp-996944
1.8038,-1.6691240891718753,Na1Pr1Se2,mp-999461
0.11150000000000038,-0.4919066935185189,Ce2Fe8B8,mp-1006322
1.8405,-1.6371969437974137,Rb40Ga8O32,mp-1020613
1.6016,-0.5504676042968755,Tl3V1Se4,mp-1025549
0.1227999999999998,-0.5144871964520007,Ba4Co8N8,mp-1029457
2.3612,-0.8742294025000001,Mg2Te2,mp-1039
1.5027999999999997,-1.8240127770312504,Y1Tl1S2,mp-1066131
0.011700000000000266,-2.5423547998611125,Eu4Fe4O10,mp-1077617
1.0006999999999993,-1.071592174375,Bi4S4O2,mp-1078366
0.8416999999999999,-0.5615193067968751,Li2As2Se4,mp-1078724
0.11010000000000007,-0.601404553524444,Eu2Fe1H6,mp-1079126
0.4033999999999995,-0.5822547761904765,Ca2In4P4,mp-1079772
2.5664,-0.7038235490799991,Ca2H6Ru1,mp-1079896
1.0754,-1.280779747625001,Yb1Cu2S2,mp-1080149
3.7659,-2.0117835873819443,Li12Ge6S36O126,mp-1080241
4.369999999999999,-3.0173823459027784,Sr4Li4B4O12,mp-10814
2.4607,-0.9822720532812506,Nb1Tl3S4,mp-1091384
0.049099999999999255,-1.8905456138392855,La4P4Au2O2,mp-1095626
2.9941000000000004,-3.924662773318965,Zr8Sc2O19,mp-1100806
0.2815000000000003,-0.7692138020000001,Pr6Cu6Sb8,mp-1105827
4.1016,-1.61503314453125,Li4Al4S8,mp-1106183
2.419,-1.360986938664691,Cs2Dy2Cd2Se6,mp-11122
5.1002,-2.5103139789973787,Cs2K1Dy1Cl6,mp-1112785
1.7804000000000002,-1.2253130035714292,Co4Ni2O8,mp-1153924
2.6796,-2.4025609556033336,Nd10Te14Mo2Cl6O46,mp-1173624
1.1288,-1.8671163642857151,Li8Fe12Bi4O32,mp-1177997
0.2723,-0.022068819133333292,Y1Mg149,mp-1188082
1.1148,-1.8065363482390888,Ag4P4Pd2O14,mp-1190325
1.0233,-0.9129992655642636,Cs2Nd4Ag6Te10,mp-1190370
0.4609000000000001,-0.7141987089650002,Tm6H18,mp-1191179
4.5022,-0.15252003793575722,Zn2B4H16,mp-1191586
2.3684000000000003,-1.8702949071748216,Nb2Pb4Se4Cl2O16,mp-1193560
2.1687,-0.8612589718628573,Re4Te8Cl16,mp-1193652
1.9825,-2.5852309185714284,Tm4Mo4Br4O16,mp-1194343
2.3391,-1.076514212850986,Cs8Cd4Ge12S32,mp-1194601
3.8508,-2.4507911646428586,Sr4Zn6Te4P4O28,mp-1194862
5.2376,-1.5194120446570003,H20S8N4O28,mp-1195328
4.1366,-1.6416259722000002,Li4Sn2H20O16,mp-1195757
0.9152,-0.5882557258419467,Cs4Nb8P4Se40,mp-1195822
1.2095000000000002,-0.5993898491420451,Na8Re12Se24,mp-1196650
4.2666,-1.8718837702736055,Cd2P4H16O20,mp-1197015
0.8016999999999994,-1.7807668609960938,La8Hf4Se20,mp-1197516
4.683599999999998,-3.220892285592759,K9Y3Si12O32F2,mp-1198649
1.5848,-1.632059230888333,Cd32As16H16O80,mp-1198923
2.141,-1.8084142660637497,Fe8H24S12O60,mp-1199115
5.997299999999999,-2.9495741170039684,Li2Sm2P8O24,mp-1199215
1.5642,-1.9448896561041653,Gd16Ga4Sb4S36,mp-1199284
6.2687,-2.9181763484805257,Li4B12O18F4,mp-1200209
4.2508,-2.456852933370317,Na4Li4Ni4P4O16F4,mp-1200250
1.8365,-2.2597037170183985,Fe4Ag4P8O28,mp-1202376
0.0040000000000000036,-0.6505892355555556,Ba2Ag2Bi2,mp-1205318
0.9995000000000004,-2.6319127352500002,Lu4Rh4O12,mp-1205366
3.164,-2.6699118565000006,Y6Sb10O24,mp-1207793
1.4821000000000002,-1.1070880804871326,Tl8Se12O48,mp-1208398
2.6383999999999994,-2.8510073779687506,Tb4Cr4Ge4O20,mp-1208423
3.1837,-3.13369079875,Sr12Tm8Ge12O48,mp-1209021
2.9545,-2.2533706790391537,Rb2Cr2S4O16,mp-1209234
4.9466,-2.9547810678775512,Na24Nd8P16O64,mp-1210619
0.35440000000000005,-2.8487771382500013,Li2Sm4Ru2O12,mp-1210954
1.9721,-2.933849533703333,Lu4Pt4F28,mp-1211006
3.708,-1.5499932645934789,Li8La4N20O60,mp-1211252
4.2169,-2.5840717718,K2Y2C4O12,mp-1211274
4.4272,-2.6516635235820005,K4Y8Cl28,mp-1211540
3.4083,-2.722771165631773,K2Rb1Sm1V2O8,mp-1211767
6.778499999999998,-3.7951305524312495,K8Ho4F20,mp-1212022
3.4993,-1.9303418498124998,K8La4Br20,mp-1212029
1.2903000000000002,-1.6545147898071435,K16Te32O92,mp-1212432
1.6622999999999997,-0.2895987820967194,Ge38P8Cl8,mp-1212555
3.6108,-2.6675420119755753,Cs2La2W4O16,mp-1213173
4.6603,-2.65000140265269,Cs4Lu8Cl28,mp-1213268
3.3854,-2.6476121959339083,Cs2Y2W4O16,mp-1213335
2.9583000000000004,-2.4121642761928217,Cs4Co4P4O16,mp-1213696
4.2700000000000005,-2.428512288679673,Cs8Mg8Mo12O48,mp-1213820
3.8872,-3.4480157733796286,Ba12Tm4Al8O30,mp-1214515
3.6003,-3.0064890974537035,Ba12Y4Ga8O30,mp-1214542
2.7092,-0.17888196081916638,C72N84Cl36,mp-1214997
0.4324999999999992,-2.540345578,Sr2La2Zn2Ru2O12,mp-1218204
1.9081,-1.9970974072554362,Sm6Cd1Si2S14,mp-1219147
1.4714999999999998,-1.1098816690195443,Rb1Nb4Ag1P2S20,mp-1219639
0.3612000000000002,-0.2742872809523814,Mn1In2Te4,mp-1221979
1.0799,-1.8897170502569232,K1Y1Nb6Cl18,mp-1223315
5.2819,-2.981447412611722,K2Sr2B2P4O16,mp-1223450
1.2522000000000002,-1.1370473267410721,Ho2Cu6S6,mp-1224178
1.6349,-2.4424484644642863,Hf2Sb2Pb4O13,mp-1224490
2.5111,-2.9522045995833337,Gd2Ge1Mo1O8,mp-1224706
0.1924999999999999,-2.933327372473637,Gd4Mn2Sb2O14,mp-1224711
2.9323,-3.4779290608749998,Ca12Hf8Al4Fe4Si4O48,mp-1227961
3.1343999999999994,-1.689972860517143,As2H2Pb2O8,mp-1228828
2.0942,-0.7754279803125009,Tl8Ge8S20,mp-12307
1.5502000000000002,-1.079725846867816,Cs2Ho2Cd2Te6,mp-12490
3.06,-3.6482455063125,Ho2S1O2,mp-12670
1.9531,-2.649244611232965,Rb2Na1Rh1F6,mp-14038
1.5651000000000002,-2.165359336607143,Mg2Sc4S8,mp-14307
1.8319,-0.9961691671116074,K6Ge2Se6,mp-14435
1.6038,-0.6226920444218749,K4As4Se8,mp-14659
4.4437,-3.560765806758889,Gd4Sn4F28,mp-15059
3.1359,-3.099008791,Sr12Y8Ge12O48,mp-15103
1.2669,-1.3538589271562502,K4V2Cu2S8,mp-15147
0.011100000000000776,-0.4036118707427536,Sm6Co58Si8B20,mp-16086
0.010200000000000207,-1.5952718737841245,Rb1Ti1S2,mp-16318
3.7221,-3.106140820147436,K18Ho6Si12O42,mp-16596
3.1781,-3.0825118578932136,Gd4S4O16F4,mp-16801
2.0592,-0.9619975156116076,Na12Ga4Se12,mp-17148
2.9619,-3.027191740000001,La8Te4O24,mp-17350
0.9541999999999992,-3.02742701394898,K4Eu4P4O16,mp-18045
3.5719000000000003,-2.4398222518501984,Ge5P6O25,mp-18049
2.4690000000000003,-2.8923543155158726,Ba4V4P4O24,mp-18520
1.3723,-2.0285810231249988,Mo8O24,mp-18856
0.5083000000000002,-1.2159285980000003,Na1Ni1O2,mp-19149
1.7431,-2.2445076585714294,Ba4Fe8O16,mp-19154
2.1644999999999994,-3.19777991025,La4Cr4O12,mp-19281
3.1087,-2.789391518387065,Mn8Be6Si6S2O24,mp-19314
0.04320000000000057,-0.8341807487499997,Gd2Cu2As4,mp-20188
0.922,-2.2486678390277786,Yb8Cu8O20,mp-20205
2.7139999999999995,-3.051102052386364,Dy4Sn4O14,mp-20845
0.6101000000000001,-0.4712861900000007,Eu1B6,mp-20874
1.6450999999999998,-2.752004138134584,Fe7Pb7F34,mp-21679
0.9216999999999996,-0.9519218932738102,Mn2In4S8,mp-22168
0.6652,-1.7856208418750017,Li1Co1O2,mp-22526
0.5725000000000007,-0.3626855795833337,Tl2In2Te4,mp-22791
2.4802,-1.9673818607989657,Cs2Br2F2,mp-22935
4.3286,-2.5102158484339583,Lu4Se4Cl4O12,mp-23096
5.2286,-2.883547025506666,Sr1Cl2,mp-23209
2.6435,-1.7019708359336363,Sb8Cl4O10,mp-23419
4.783,-2.3742209185875,Na6S2Cl1O8F1,mp-23657
4.3544,-2.287078953530163,K2Na44C4S18Cl2O84,mp-23660
5.2433000000000005,-2.2284432430556778,Rb6H2S4O16,mp-23781
2.266,-0.594464455172,Ba1Li1H3,mp-23818
5.9151,-1.9530311538128569,P4H12O16,mp-23902
4.961200000000002,-2.439466830121746,Bi2P8H2O24,mp-24348
2.8166,-0.6903809839759089,K16Be16H96N48,mp-24355
3.2114,-1.4772124195399998,Ba2H2Br2,mp-24424
2.2821,-2.7674882860416066,Li2Cr2P2O8F2,mp-25448
3.1472,-3.3192768181184205,K4Ta20O52,mp-27169
3.2523,-1.811359512475,K8Sb4Cl20,mp-27241
0.7326999999999999,-1.03249038565625,Ba8Bi8Se24,mp-27365
4.3763999999999985,-2.8681696362496667,Sn8B4F28,mp-27430
3.3982999999999994,-2.988488792916668,Tm2I2O2,mp-27439
0.9937,-2.3387355028072228,Tc6O6F24,mp-27477
4.1737,-2.5830814026683324,Mo8O8F32,mp-27511
0.9324,-1.5743015067061108,Sb3I15F18,mp-27859
1.2595,-1.8110864963507136,Ba2P1Cl1,mp-27869
1.3721,-1.4652708193402784,Ba16As16S40,mp-28134
1.255,-0.41077920714285693,Ga12Te12I4,mp-28608
2.5873,-1.7839181663749997,Mo4As8O28,mp-28775
0.3666999999999998,-0.7448979545312495,Pt2S2,mp-288
1.7025,-1.7936963586060002,K12Rh4Cl24,mp-28837
0.41299999999999937,-0.20953890812500064,Tl16Ge8Te24,mp-29034
1.7733,-1.7076527108654544,Cd2Au4F16,mp-29169
1.4376,-1.495532475892858,V8Hg16O32,mp-29189
3.6691,-2.910329512916667,Pr2I2O2,mp-29254
1.0363000000000002,-0.9674393726049711,Ta16P16S116,mp-29313
2.9553,-1.6967132328928567,K12Bi4O12,mp-29524
1.0552,-0.3887378534233334,Cl8O4,mp-29537
3.1443,-0.969936276606667,N4O4F4,mp-29966
4.1254,-1.3998420611079996,Ge4Cl16,mp-30086
3.2221,-2.6144894659943185,Tb8Se8O28,mp-30313
0.0029000000000003467,-0.3324770166666665,Eu2Cd4,mp-30487
5.362,-2.8464471824107163,Tb4P20O56,mp-30537
1.0453,-0.1460619769166655,Mg8B16C16,mp-3582
0.4180000000000006,-1.0750822101785715,Cr4Cd2S8,mp-4338
3.2956,-2.253695305277778,Ca1As2O6,mp-4555
3.0112,-0.9129326637099998,Li56V8N32,mp-4604
2.9979,-1.8080010341066668,B4N4F32,mp-4674
1.3642000000000003,-0.31140023107142856,Zn2Si2P4,mp-4763
6.8801000000000005,-3.3218644545962563,Cs8Be4F16,mp-5013
0.4381,-1.7400647892085712,K8Mn4O16,mp-504636
0.5682999999999998,-1.0541694356249998,Sc16C8I24,mp-504934
0.7806,-2.394149766717688,Fe4Cu2P8O28,mp-510036
1.7908999999999995,-1.021529278418888,Ca16C4N16,mp-5251
2.4276,-0.7291963863839293,Ge8S12Br8,mp-540792
0.6512000000000002,-2.0355967249500004,Ru8F40,mp-540829
1.9861000000000004,-2.385644432750001,Ca4Co2Te2O12,mp-552051
1.9449,-2.962252265737816,Cs4Mn4F16,mp-554411
2.5836,-1.996922255214844,Ba2Mo4Se4O22,mp-554548
5.4929,-3.8796345220366666,Sr2Ta2F14,mp-555119
4.543,-2.8752228542802203,K8Ho4P4W4O32,mp-555335
2.4981000000000004,-1.8828279257060188,Nd12Si8S34,mp-555407
3.0576000000000003,-1.7515017344799997,K1As4Cl1O6,mp-556233
2.3399,-1.313247277871072,Ta8P16S16Cl40,mp-556728
4.6078,-3.2282789950812503,Sm6Si4Cl10O12,mp-556820
4.7893,-3.301587517477273,Na4Pr4Si24O56,mp-557126
4.9542,-2.4962265309413274,K1Ni1P3O9,mp-557878
5.5274,-2.9312374264761907,Na12Si12B12O48,mp-558181
2.5851,-1.195517573565272,Cs4Si4Bi4S16,mp-558426
0.5941000000000001,-3.484484926839334,Na1Zr2Cu1F11,mp-559126
3.6869,-2.4514507428896106,Zn16P16O56,mp-559319
1.457,-2.2321928703481086,Mn3V6Fe4O24,mp-559387
2.8112000000000004,-1.7287421639999998,K2Ni2As2O8,mp-559672
1.5497999999999998,-3.2277753621425003,V2F6,mp-559931
2.5225000000000004,-1.8875942849652776,Pr12Si8S34,mp-559955
3.3493,-1.9905181913906247,Na2Pr2Se4O16,mp-560898
0.9775,-0.8210127972325006,Pd16S16Cl16,mp-560901
1.8938,-1.5584014766227579,Pb26Cl12O20,mp-561236
5.2256,-2.9674866899427084,Na4Sr4B20O36,mp-561514
3.8615,-2.6123466306738417,Cs4As4O4F16,mp-562403
1.9074,-2.5209804039962416,K6Fe10P12O48,mp-566670
1.8181,-0.45065124038,I8Cl8,mp-567998
2.7212,-1.5322815663757152,Na4Nd16I28N8,mp-568759
1.379,-0.589950326755696,Rb16Hg8P8Se40,mp-569349
1.5606,-0.9489541457430556,K16Sn4Te8Se8,mp-569427
2.5342,-1.431424868154444,Sr8B4I4N8,mp-569810
1.2973,-0.6726699638636362,Ga8Te8Br28,mp-570186
0.3618999999999999,-0.4031052383333336,Li1Mg1Bi1,mp-570213
1.7009000000000003,-0.6292568401562502,Tl12As4S16,mp-5704