band_gap,formation_energy_per_atom,full_formula,task_id
0.0,-0.6995189049999997,Tb20Bi12,mp-31463
0.0,-0.8606299946428569,Ca12Ga8Pt8,mp-31479
0.0,-0.8289846108571439,Sr1Fe2P2,mp-3299
1.7671999999999999,-2.3819861948508336,Ag4Sb4F24,mp-3414
4.7718,-3.8129377932812503,Y8Si4O20,mp-3520
0.0,-2.714395472205881,Gd8Mo12O48,mp-3572
0.0,-2.1617912246150004,Li2Mn2O4,mp-37620
0.0,-0.7971615153333331,Tb1B1Rh3,mp-3869
0.006000000000000227,-0.43230853750000087,Eu2Tl4Pd2,mp-3891
4.609500000000001,-3.4630892399166657,Sr6Si6O18,mp-3978
0.0,-0.5166853151666657,Sm1Co2B2,mp-4073
1.9291999999999998,-2.287607490376667,Ta4N4O4,mp-4165
0.0,-0.8376777399999993,Dy2Si4Ni2,mp-4171
0.0,-0.9163511200000016,Dy1Si2Ru2,mp-4177
0.0,-0.6654391959999998,Tm1Ni2Ge2,mp-4195
2.4970999999999997,-1.0805898529791662,K4B4S14,mp-4351
0.0,-3.3229412899166677,Ti4O6,mp-458
0.0,-1.8738181885416676,Li8Ru4O12,mp-4630
3.808,-1.8674666995610114,Li12Se6O24,mp-4855
0.0,-0.8799898649999998,Sc1Sn1Pd2,mp-4897
1.7128999999999999,-1.5415142254827585,Cs16Zn8O16,mp-504601
3.396,-0.9460321699733333,Ni4N8O24,mp-504722
0.0,-0.4902121406249993,Nb4Ni4As8,mp-504835
0.11959999999999993,-2.4087905603957402,Cs4Cu3F10,mp-505031
2.9455999999999998,-2.8398543991875003,Ba6V8O26,mp-505392
0.0,-0.7075021327551018,Sc2Fe8P4,mp-510133
0.0,-0.5070889441666656,Hf12Ga12,mp-510188
0.0,-0.7506261656250004,Nd2Co2Si4,mp-5170
3.1685999999999996,-2.412889384578201,Rb2Nb2Ge6O18,mp-540633
0.0,-1.0391697038990664,Cs2Fe4S6,mp-542475
0.0,-0.47528254249999957,Ge4Pt4,mp-542640
4.1316,-1.9667478927604172,Sn4S4O16,mp-542967
0.0,-1.0208792268571423,Tb1Ni2P2,mp-5517
2.994,-1.800204501748236,Bi24Cl12O28F4,mp-554249
2.0563000000000002,-1.2348314423523812,K18Bi2P8S32,mp-554554
0.681,-1.5863929599374997,Ba4La4Bi8S24,mp-555699
2.818,-2.607586617000001,Na2Mg4V6O20,mp-555794
2.8775,-2.60738200334967,Rb4Mn4P4O16,mp-556338
1.0152999999999999,-1.8201707469531268,Gd6Cu2Sn2S14,mp-556782
2.7254,-1.9342592927344557,Ti4P8Cl32O12,mp-557289
1.8443999999999998,-2.102256189583334,Ca8Fe8Sb8As16O56,mp-557398
2.8895,-3.412938037500001,Ba4Li8Ti24O56,mp-558083
0.0,-2.312311076552198,P6Ru2O18,mp-558870
2.5161000000000002,-2.0377897734375003,Nb8Bi8Te16O64,mp-559861
4.2120999999999995,-2.5236732502616674,K8Te8O8F24,mp-559932
2.6948999999999996,-1.971973108384616,K12Li12Te4O24,mp-560739
4.0586,-3.0724692410639998,Na6Cr2F12,mp-560929
2.3083,-1.1398921426186661,Li4Ca3Si2N6,mp-567219
0.0,-0.4108157637499996,Ce2Al6,mp-567305
0.0,-0.4220823099999998,Tb16Mg4Ir4,mp-567351
0.0,-0.5605386099999997,Pr4Co4I2,mp-567727
0.0,-0.37931913230555475,La20B20C20,mp-568090
0.0,-0.33425658478515663,Tl20Se12,mp-568380
0.0,-0.6259974755691055,Ca7B14Rh20,mp-568511
0.0,-1.0380025928571441,Y1P2Ru2,mp-568832
0.0,-0.1549958799999999,Tl1Cu2Te2,mp-569204
0.0,-1.003490473469388,Tb3P4Pd7,mp-569431
0.0,-0.8817630861538456,Y6Ge12Pt8,mp-570801
0.0,-0.39925864749999995,Dy16Mg4Rh4,mp-571208
1.7751000000000001,-0.6758662775885416,K2Ta2Ag4Se8,mp-571288
0.0,-0.24721379916666683,Dy16Cd4Co4,mp-571376
1.0611000000000006,-1.840006298619792,Gd6Cu2Ge2S14,mp-573114
3.0623,-2.076585003249521,Cs24Ge12O36,mp-573150
0.0,-0.5718629735416668,Dy12Ni12Sn24,mp-580525
2.9139999999999997,-3.557156916666667,Li4Gd24B12O56,mp-581285
0.0,-0.6088009137500002,Ba8Ca8Sn24,mp-583645
0.0,-0.8258154120000007,Dy1Co2Si2,mp-5976
1.2806999999999995,-2.740242794427084,Eu4S4O16,mp-616175
0.31110000000000015,-2.6499092229545456,Li2Ca6Ru2O12,mp-6342
0.0,-0.37532362249999923,Sn4Rh8,mp-636334
0.0,-0.10401148437499952,La12Co4,mp-640095
0.0,-2.4203319575000006,Sr6Zn2Ir2O12,mp-6723
0.0,-0.4389329568181818,Sc12Pb10,mp-672313
0.0,-0.46505368000000047,Ho2Ni4,mp-673
0.12400000000000011,-0.8215558333020836,Na3V5Se10,mp-675310
0.0,-0.3498015166666666,Sr2Cd4,mp-677
3.567,-0.9926775016600001,Cd2H8C2N4Cl4O2,mp-697033
0.0,-0.731104345833335,La2Si2Ni2,mp-7030
1.0391000000000004,-2.176534826615592,Na17W19O57,mp-706847
5.338699999999999,-1.2086168369012702,P4H44N8O16,mp-721182
0.0,-0.320482058857143,Li1Cu2P2,mp-7298
3.5073,-1.4027018605149995,Na4H32O20,mp-733637
0.0,-2.131154207104886,Ba42Ir24Pd9O99,mp-738639
0.98,-2.0639165175555556,Na8V2O8,mp-754829
3.0310000000000006,-3.539242880937501,Ba3Zr2O7,mp-755895
0.0,-0.45601889466666706,Co1B2W2,mp-7573
2.5895,-2.9845949439702393,Ti4P8O28,mp-761010
4.3701,-2.655841771406863,Na6Ga2B8O18,mp-766463
0.2622,-1.8548710891071423,Li4Ni3Sn5O16,mp-768603
0.6247999999999999,-2.008659237496668,Na4Mn2As2C2O14,mp-773119
3.2540999999999998,-2.593988806443266,Na4Mn4P4O16,mp-775855
0.0,-0.22614305900862064,Rb6As2,mp-7898
0.0,-0.03750337750000021,V6Au2,mp-839
0.0,-0.6404012408333344,Ti2Co1Ir1,mp-861639
0.0,-0.6138598225000003,Li1Er2Ir1,mp-862554
0.0,-0.20512490812500062,Sc1Re1Tc2,mp-862609
0.0,-0.5524555649999998,Li1Al1Au2,mp-862717
0.0,-0.5349084249999994,Mn1Ga1Rh2,mp-864949
0.0,-0.12840767750000026,Cd2Au6,mp-865144
0.0,-0.3418504699999998,Dy2Cu1Ru1,mp-865220
0.0,-0.34450234750000064,Tm2Zn1Os1,mp-865236
0.0,-0.5224324150000008,Lu2Ni1Ru1,mp-865335
0.0,-0.8252234224999997,Yb1Tm1Rh2,mp-865422
0.0,-1.320409765,Y1Te1,mp-865430
0.0,-0.5867687066666658,Ti1Al1Os2,mp-865442
0.0,-0.3792088200000001,V2I6,mp-865493
0.0,-0.33753343125000024,Li1Pr1Tl2,mp-865709
0.0,-0.5354225775000003,Li1Zr1Au2,mp-865924
0.0,-0.6480675868965522,Zr6Al16Ru7,mp-866136
0.0,-0.3869480412499999,Yb16Mg4Pd4,mp-866208
0.0,-0.48080590035714216,Gd4Ga18Co6,mp-866782
0.0,-0.13791243749999982,Al3Cr1,mp-867780
0.0,-0.6666760914583332,Sm1In1Rh2,mp-867978
0.0,-0.26611688499999975,Nd2Co2C4,mp-8761
0.08429999999999982,-1.9330859586899996,Ho1N1,mp-883
0.9884999999999999,-1.2621074311538463,Hg12As8O32,mp-8975
0.0,-0.7999351640000014,V4B6,mp-9208
0.0,-0.3214330479999997,Li3Ga2,mp-9568
0.0,-0.3799686643750002,Yb1Nd1Cd2,mp-971702
0.0,-0.30902363124999965,V2Mo1Os1,mp-972205
0.0,-0.3129339739583328,Sm1Y1Ag2,mp-972528
0.0,-0.26741362375000044,Si1Tc2W1,mp-972810
0.0,-0.46369878229166694,Nd1Ho1In2,mp-975933
0.0,-0.6994610359999995,Hf6Ge4,mp-976273
1.9739,-1.381670426531251,K4Nb2Cu2S8,mp-9763
0.0,-0.30990818249999963,Lu1In3,mp-977
0.0,-0.5718628311607138,Bi4Rh6S4,mp-977592
0.0,-0.534493816875,Sm2Ga4Co2,mp-980004
0.0,-1.2534761658569997,Sr6Sn2N1F1,mp-989592
0.0,-1.0064659225000003,Hf4As4,mp-9954
1.8479999999999999,-1.6883644710468744,Na1Sm1Se2,mp-999450
0.0,-0.6017503924999996,Lu2Ga2,mp-1001613
0.0,-0.22410507574999983,Ce3Al1C1,mp-10036
0.6438999999999999,-0.18133432999999943,Be2Ge2As4,mp-1009088
0.0,-1.0187381594760005,Er3Al1N1,mp-1017558
0.0,-0.6623423666666662,Ce2Co2Si2,mp-1018660
4.6895999999999995,-3.5130540305909093,Ba6Na2Y6Si12O40,mp-1019523
4.7086,-3.261697567175925,Ca8B8O20,mp-1019560
0.0,-0.6386712516666666,Er2Al2Ge2,mp-1024985
0.0,-0.28960689166666614,Lu2Cu4,mp-1025122
0.0,-3.47281343309524,Eu2Ti1O4,mp-1025200
1.2786999999999997,-0.14691709749999982,Ir2I6,mp-1025442
0.0,-0.9718386212499999,Lu1Al2Pd5,mp-1025564
0.0,-0.6728019581628573,Sr6Ir2N6,mp-1029741
0.0,-0.20170640624999958,Cd1Pt3,mp-1067236
4.0866999999999996,-1.8354509172933333,Yb2H2Cl2,mp-1070852
0.0,-0.2745772283333334,Dy2Cu4,mp-1071835
0.0,-0.1979545766666663,Pr2Cu4,mp-1071904
0.0,-0.7838106320000001,Ca4Ga2Pd4,mp-1078280
0.0,-0.641703075555556,Sc3Ni3Sn3,mp-1078355
1.4445000000000001,-2.88203011975,Ba2Lu1Bi1O6,mp-1078394
0.0,-0.7939993874074074,Zr2B1Ir6,mp-1078623
0.0,-0.3960156366666666,Er4In2Cu4,mp-1078738
0.04689999999999994,-2.8457801159999994,Ba2Sm1Os1O6,mp-1080470
0.8212,-0.9575272862413797,Cs2Ni2Br6,mp-1080570
0.0,-0.3549675375000003,Al1Fe1Co2,mp-10884
0.0,-0.7144286841666663,Ti1Ir3,mp-1089
0.0,-1.0766819973809518,Hf4V4P4,mp-1095442
0.0,-0.8895259500000007,Y4Al4Pd4,mp-1095464
0.0,-0.36378409750000057,Yb3Ni9,mp-1095559
0.037200000000000344,-2.8780714739682542,Ti3V2Cr1P6O24,mp-1101282
0.0,-0.736035379166666,Sm4Ni4Ge4,mp-1101817
4.795299999999999,-2.483967741333334,Tb2H4Cl2O4,mp-1102075
0.0,-0.5684289241666663,Eu4Mg4Sn4,mp-1102145
0.0,-0.6579062091666662,Tm4Ni4Sn4,mp-1102179
0.0,-0.46487495083333386,Tb4Ga4Co4,mp-1103095
0.0,-1.1354331941666669,Ho4Ge4Pt4,mp-1103105
0.0,-1.1074288558333336,Y4Ga4Pt4,mp-1103353
0.0,-0.2599970687500002,Gd2Al6C6,mp-1104806
0.08420000000000005,-2.9378696192500002,Ca4Sc2Os2O12,mp-1105395
0.0,-0.03525960789473677,Pr2Co17,mp-1105621
3.058,-3.069705897980667,K2Al1Ag1F6,mp-1111949
0.0,-2.1496512121425004,Li1Rh1F6,mp-11171
0.0,-0.8707170386363636,Ca3Si4Ir4,mp-11176
0.0,-0.12424565333333426,Zr2Ag2,mp-11239
0.0,-1.0511996424999985,Sc1Ir1,mp-1129
0.0,-0.711550837499999,Hf1Os1,mp-11452
0.0,-0.47633919,Tm1Hg1,mp-11475
0.0,-0.9879134400000007,Tm1Rh1,mp-11564
0.0,-1.8590077697500003,Yb3Pb1O1,mp-11652
3.5244999999999997,-0.6348824823577774,Na1Ca1H6Ir1,mp-1180133
0.0,-0.66650394875,Li1Mg1Sn1Pt1,mp-11806
0.0,-0.4573313025000001,Er1Sc1Ru2,mp-1184223
0.0,-0.022182762499999953,Hf3Pb1,mp-1184772
0.1578999999999997,-0.02859848082708311,Mg149S1,mp-1185578
0.0,-0.11180970388888885,Mg1Ag5,mp-1185833
0.0,-0.4622584187500003,Pm2Cu1Au1,mp-1186452
0.0,-0.5667275474999998,Pm1Sm1Ga2,mp-1186643
0.0,-1.1707378925,Dy4Si4Pt8,mp-1188085
0.0,-0.6973570366964275,Ta4Ni4P8,mp-1188762
0.0,-0.6398250758333326,Lu4B8Os4,mp-1189270
0.0,-0.9430136175000001,Sm4Si4Pd8,mp-1190170
0.0,-0.28673111759259406,Zr10In2Pb6,mp-1190391
3.6144000000000003,-2.811356183854168,Ba4Mg2Ge4O14,mp-1190545
3.9034000000000004,-2.444349399427826,Bi7O5F11,mp-1190898
0.0,-0.4376007796153844,Lu2Al20Os4,mp-1192563
1.6378000000000001,-2.3894409514499992,K2V6Ge4O18,mp-1192668
0.12670000000000003,-0.8952453176923078,Sr10Sn4As12,mp-1194401
0.0,-0.18987700324074,Fe16B56,mp-1194531
0.0,-0.17817240586956512,Zr2Zn40Ni4,mp-1195444
2.1813000000000002,-1.8602874173930048,Ag8P8H8O28,mp-1195759
0.0,-0.6764794452777778,Tm8Re4B24,mp-1195760
2.4604999999999997,-2.371215139736843,Sr30I12O72,mp-1195789
0.0,-0.13720457612745082,Sm8Co56B4,mp-1195895
0.0,-0.796576576578948,Tb10Ge20Rh8,mp-1197617
0.0,-0.34742553000000004,Y3Mg3Tl3,mp-11984
3.473,-1.2746612361503693,Li24Ca12Si24N48,mp-1199122
3.7189,-2.9503044796095237,Ba6In4P8O32,mp-1200796
1.9192,-1.0458099817077777,H14Au2N8O30,mp-1201215
0.0,-0.3372665259729728,K24Sn8Au42,mp-1201536
0.8367,-0.28303386679687526,Tl12As4Se16,mp-1201566
0.0,-0.09271747499999998,Tb2Cd40Ni4,mp-1201592
0.0,-0.5780091838888894,Dy8Ge24Pd4,mp-1202284
0.0,-0.5721657737499996,Y24Ga16,mp-1204352
1.2654999999999998,-1.016052613548852,Rb4Pd6S8,mp-1205388
0.04829999999999934,-1.0119305715079367,Eu6Al4P8,mp-1205409
0.06309999999999993,-2.180726765772667,K12Ti4Cl24,mp-1205449
2.4960999999999998,-1.0009925873209085,Tm2C3N6,mp-1205483
0.0,-0.58322346275,Ce2Si2Ru4C2,mp-1205654
0.0,-0.6553232057466671,Eu2H6Ir1,mp-1205815
0.0,-1.0579797250000003,Gd1Ni1As1,mp-1206977
0.0,-0.884243481,Zr6Si4,mp-1207024
0.0,-0.6832996065789476,Yb10Ni28As19,mp-1207939
0.0,-2.483931847280406,Sm4Tm11S22,mp-1208949
0.2203999999999997,-0.9395256677500001,Ni2Pt6O12,mp-1209897
0.0,-3.4090237920833335,Nd4Eu8Be4O20,mp-1210044
0.0,-2.7269153745016665,Na1Eu1Cu2F8,mp-1210237
0.9725000000000001,-1.731463896442947,Rb4Nb24Cl60,mp-1210315
0.0,-0.6584712235416674,Sm10In20Pd10,mp-1210938
0.0,-0.27764095964912366,Nd12In1Ni6,mp-1211308
1.9754999999999998,-2.90325137425,Gd4Mg2Pt2O12,mp-1212711
0.0,-0.2764096963888897,Dy12Co5Bi1,mp-1213103
0.0,-0.936241016666667,Ca4Sb4Pd4,mp-1213959
0.0,-2.039440307333334,Ba2Gd1Cu4O8,mp-1214720
0.0,-0.46808247062499975,Zr2Zn3Ga3,mp-1215412
0.0,-2.255774163295456,Yb2Sn4Bi2O14,mp-1215646
0.0,-0.29522584718750045,Tl9Sn1Te6,mp-1216727
2.4166,-2.8661776699074073,Ti2Nb2Bi2O12,mp-1216838
0.0,-0.2433963673076927,Ta13Co13,mp-1218179
1.8371999999999997,-3.1223526314285723,Sr4Ta1Fe1O8,mp-1218412
0.0,-0.2605342194999999,Sr2Al7Ge1,mp-1218856
2.1168000000000005,-1.9037559868206526,Sm6Cd1Ge2S14,mp-1219158
0.0,-0.32737689416666643,Si2Ni6Mo4,mp-1219280
6.086,-0.48458425358191565,Rb1B1H4,mp-1219553
0.0,-0.22274730321428562,Sc12Zn72,mp-1219746
0.0,-0.6867195429464285,Nd5Sn15Rh8,mp-1220346
0.0,-0.19053200343750198,Nb12Sn3Sb1,mp-1220795
0.0,-0.3330631182758629,Nb5Ni41B12,mp-1220806
0.0,-0.10314353205128321,Nb19Fe20,mp-1221162
0.0,-2.1364979841041674,K1Ba2Bi2O7,mp-1223506
1.4804,-2.0093837820925935,K2Ti1Te3O12,mp-1223905
0.0,-0.538680415,Ho2Ga1Ru1,mp-1223927
3.4358999999999997,-2.0086622059275734,K3Na7Mg2H12S6N2O36,mp-1224548
4.351,-3.1137102589489793,K4Mg6Zn4Si24O60,mp-1224589
0.0,-2.9512481555000023,Gd2Sb1O2,mp-1224680
0.0,-0.8520416074175833,Eu2Mn1P3Pt7,mp-1225492
3.8869,-2.55553098164963,K12Sr4Ni10P20O70,mp-1225542
3.5881999999999996,-1.6632092513513148,Er12Si22N40O2,mp-1225896
1.2931,-0.43899720530612235,Cd3P1I3,mp-1226891
4.2575,-3.5678549632291676,Ca2Nd2Al6O14,mp-1227115
1.0126999999999997,-2.0875827262499995,Ba1Sr3Co4O12,mp-1227831
4.6078,-3.0235666095204077,Ba2Na2P2O8,mp-1227883
0.0,-0.5003380999999999,Ba2Hg2Pb2,mp-1228081
0.0,-0.3070492531944448,Ba16Zn9Ge80Pd3,mp-1229324
1.9913,-1.8363555331425,K1Au1F6,mp-12442
1.6292999999999997,-1.7081411632812502,Er4Cu4S8,mp-12454
0.0,-0.004888678916666815,Ba12Na12,mp-1247744
0.0,-1.507699178203124,Hf4C2S2,mp-13137
4.9488,-2.925004571079126,Cs4Sr2P4O14,mp-14355
3.2291999999999996,-2.490952957674107,K8Ge8P8O40,mp-14383
3.8928000000000003,-1.8491467846428569,Sr8Al16S32,mp-14424
1.9057,-2.408060477628611,Tm12Au24F108,mp-14761
1.6771,-0.9482784443830821,Rb4Nb2Cu2Se8,mp-15222
0.0,-0.9415215497416671,Ca12Fe2N10,mp-16916
3.4341000000000004,-2.4851599776041073,Fe8P4O16F4,mp-18121
2.1315,-1.4871555623008035,Rb4Mn4O16,mp-18301
1.8857999999999997,-0.33206444177566974,K4P4Se24,mp-18625
3.2569,-2.979407724250001,Ba2Sr1W1O6,mp-18764
0.0,-0.18524608642857135,Hf2Be26,mp-1878
3.0358,-2.554199326263158,Na4Sr2V8O24,mp-18975
3.4356,-3.686032213421054,Y6W1O12,mp-19005
3.8165000000000004,-2.839549595637255,Nd4Ni4B20O40,mp-19520
0.0,-0.9960177326426667,Sm3In1N1,mp-19716
0.0,-0.17859289900000022,Co4Cu2Ge4,mp-19955
0.0,-0.2665260234375005,Ni3Se2,mp-2056
0.0,-0.6682169524999999,La2Si4,mp-2062
0.0,-0.4107871416666664,Tm1In1,mp-20848
0.0,-0.8733102906666665,Dy4In2Pd4,mp-20870
0.0,-0.37030097500000014,Sr1Pb3,mp-21162
0.0,-0.45333954187500014,Nd1In3,mp-21197
0.0,-0.29450958533333316,Li3In2,mp-21293
2.9856999999999996,-2.997526057678571,Nd4Al12Pb8O32,mp-21618
0.0,-0.7317323895000001,Ca8Sn20Pt12,mp-21774
0.0,-0.4360306806249999,Pr1Si2Mo2C1,mp-21891
0.0,-0.5860976166666662,Ga2Pt1,mp-22095
0.0,-0.9001637941666664,Ba4Ge4Pt4,mp-22151
0.0,-0.6027210533333326,Dy2Cu2Sn2,mp-22188
0.0,-0.9010209200000006,Dy1Pd1,mp-2226
3.9593999999999996,-2.2960822570918364,Li4Ni4P4O16,mp-22417
0.0,-0.8453761049999997,Ho4Si4Ru4,mp-22497
0.3846000000000007,-1.9029576144642866,Eu4Si2S8,mp-22504
0.0,-0.6942701355555548,Dy3In3Ir3,mp-22723
0.42210000000000036,-0.26155375500000017,Bi4Te7Pb1,mp-23005
1.8237999999999999,-1.247079898497816,Cs2Cu4Cl6,mp-23065
0.0,-0.3501341299999998,Fe2Br6,mp-23232
0.0,-0.8873681074999995,Y1Bi1,mp-23241
6.562100000000001,-0.10658758439600007,Si4H16,mp-23739
2.4219,-1.4422663369855557,Cd8H12Cl4O12,mp-24015
7.533799999999999,-4.4489910365175,Y4F12,mp-2416
0.0,-0.6533419090799999,Zr1H2,mp-24286
0.0,-0.2582038749999995,Cr1Pt3,mp-2515
3.4454999999999996,-2.814314193255814,Mg28Ge10O48,mp-27295
0.05620000000000003,-2.3458837247161903,Sb6Br4F32,mp-27318
0.12059999999999993,-1.339235580589351,V2P2Cl18,mp-27523
1.5456999999999999,-1.8077011652853334,Ca1Au2F12,mp-28153
1.5453999999999999,-0.8976935814285711,Ba2Al4Te8,mp-28505
4.347300000000001,-0.8700712065577787,Pb2Cl4O12,mp-28513
0.0,-0.18203188614583254,Ca4Ni3C5,mp-28742
1.8019000000000003,-1.2123681039560001,Ga6Bi10Cl24,mp-29075
0.0,-1.4773239842524992,La6Si6Cl4,mp-29559
1.6525999999999998,-3.3099028157933335,Ba4Pd2F12,mp-29794
0.0,-0.656495961015624,Nb7B6C3,mp-29982
0.0,-0.16632435322580638,Ca4Al51Cr7,mp-30174
0.0,-0.7033773270833334,Ho1In1Au2,mp-30388
0.0,-0.6927425899999999,Tb1Pb1Au1,mp-30413
0.0,-0.3388694508333335,Sm1Cd2,mp-30495
0.0,-0.10511640140086209,Cs2Ga14,mp-30574
0.0,-0.4001136177777778,Ti4Ga2,mp-30671
0.0,-0.44091444916666633,Ho1In1,mp-30728
0.0,-0.6068140172222218,Sr2Ag2Bi2,mp-31018
0.0,-0.6422614050000005,Zr4Sb2,mp-31379
0.0,-0.44796102999999976,Li4Sn4Au2,mp-31496
3.893,-1.9894813050000009,Re2Ni1O8,mp-32311
0.0,-0.39900735166666657,Sr1Al1Si1,mp-3698
0.0,-0.7207305792708336,Ti4Sn2C2,mp-3871
6.4809,-3.7003304963488883,Li2Zr1F6,mp-4002
0.0,-0.47149392299999987,Ca1Co2Ge2,mp-4259
0.0,-0.9142313455000007,La1Ge2Rh2,mp-4562
0.15500000000000025,-0.22877040750000033,Tl1Sb1Te2,mp-4573
0.0,-0.3358610768750001,Dy1Ni1C2,mp-4587
0.0,-0.7240870820153061,La2Co16P10,mp-504771
0.0,-0.8685939441666667,Hf20Co4As12,mp-505333
0.0,-2.193343826039333,Sc7B1Cl12,mp-505489
0.0,-0.7290912199999999,Mg1Pd1,mp-506
0.0,-0.8457432997222227,Ti4Si4Ni4,mp-510409
2.9576999999999996,-1.4931417966346152,Gd4I12O36,mp-510661
0.008699999999999986,-1.6257797431476921,K6Mn4O16,mp-510713
0.0,-0.3735296679310356,Zr2Ni21B6,mp-5172
0.0,-0.4000147830208327,Cu4As4S4,mp-5305
3.7996,-2.3830596542218476,Na6Mg6In2S12O48,mp-532701
0.0,-0.3396375758333332,Ca2Ag2,mp-538
0.0,-1.7007414970333334,Rh8F40,mp-540622
0.9384999999999999,-1.0829053107499995,V4S16,mp-541155
0.6989999999999998,-0.48121786596428606,K24Al8P16,mp-541684
0.0,-0.43925613909090927,Ce3Cu4Sn4,mp-542881
2.6786000000000003,-3.5233794655555557,Ti4O8,mp-554278
3.4151,-2.492987050986843,Nd4Te4W4O26,mp-554313
3.5263,-3.025347235231481,Ba12Er4Ga8O30,mp-555481
1.8455000000000001,-1.236725997678571,Ba4Sn4Hg4S16,mp-555954
3.6611000000000002,-2.8478831245277783,Na12Y4B8O24,mp-556039
3.1031999999999997,-2.3627619585906943,Ni12B28Cl4O52,mp-556141
0.0,-2.5210770250150003,Ba10Ru4Cl4O18,mp-556443
2.183,-0.7473026727475649,Tl4Bi4P8S28,mp-556665
1.7928999999999995,-1.8207402098697916,Y6Cu2Ge2S14,mp-556781
3.5744,-2.863740052142499,Mo2F6,mp-557539
4.0938,-0.9279596409639167,Rb4Bi2Cl10O40,mp-557599
4.8228,-3.2868517616319455,Ca2Al4B4O14,mp-557689
2.6828,-1.9626258862954558,K2Ga2As4O14,mp-557918
4.5892,-3.1355750222934375,Li2La4S4O16F6,mp-557969
3.9994,-2.4756224762023815,K4Li8B4O12,mp-558628
3.6597,-2.9577953373585717,K4V4O4F16,mp-558666
3.7653000000000003,-2.8172684553611114,Na12Nd4B8O24,mp-558805
3.4370999999999996,-1.5697591765067267,In4H4Se4O16,mp-560404
1.7412,-1.922487564869792,Tb6Si2Cu2S14,mp-560501
3.3617999999999997,-2.761002407270595,Cs2Na2Ti2O6,mp-560791
1.7298,-2.5044857731495234,Ba10Mn6Cl2O24,mp-560883
1.7989,-1.532535273593,K8Ru4N4Cl20O4,mp-560966
0.0,-0.8716245581730768,Ba56Mn4Bi44,mp-567518
1.9983,-1.5242703982208625,Cs2Sb2Cl12,mp-567583
1.1376999999999997,-1.0047689734635412,Er4Cu4Pb4Se12,mp-567983
0.0,-0.6925794835416665,Ti10Ge6,mp-568151
0.0,-0.9093172080000003,Tm1Si2Ru2,mp-568371
0.0,-0.4390448566666663,Dy1Fe2B2,mp-568725
0.0,-0.3683478994722227,Nd20B20C20,mp-568966
0.0,-0.8503622937499993,Sr56Mn4Bi44,mp-569111
0.0,-0.47682798312499974,Yb4Zn6Ge6,mp-569434
0.0,-0.5891330141428568,Sc12Ni36Ge22,mp-569969
0.0,-0.5500083348333338,Sr4In8Au8,mp-570556
0.0,-0.7567784158924988,Sr2Li6Mn2N6,mp-570931
0.11840000000000028,-1.0702096882558503,Cs2Zr7C1I18,mp-571150
0.0,-0.22100230145833333,La2Zn22,mp-571191
1.7916,-1.225523804631226,Cs36Au12O24,mp-572441
1.0560999999999998,-0.659380735555556,Ti1Co1Sb1,mp-5967
0.0,-0.6048445433333333,Ce8Al8Ru8,mp-604008
0.0,-0.49532565166666603,Dy4Ga4Co4,mp-605252
4.480099999999999,-0.7151983622248492,Cs4C4S4N4,mp-614311
0.9885999999999999,-0.9580808942517004,Ca12In4P12,mp-614572
0.0,-0.39309800222222235,Ca3Cd3Pb3,mp-623089
0.0,-1.1649964088124998,Cu6Bi2Se4Br2O16,mp-628637
0.0,-0.09628201008620729,Cr21W2C6,mp-641575
0.0,-2.956902937386364,Gd4Mo4O14,mp-642754
2.305,-1.8828568726215293,Tl2V6Se4O24,mp-645272
0.0,-0.25353972500000016,Bi24Rh6Br4,mp-645514
0.3422999999999998,-2.2397967899030196,Gd20S38,mp-646008
0.0,-0.3233696000000001,Be5Pd1,mp-650
0.07869999999999999,-2.88358156575,Ba2Er1Ru1O6,mp-6621
4.7937,-3.244122272077587,Cs4Zr2Si6O18,mp-6694
0.0,-0.4726414668750003,La20Ga12,mp-672217
0.0,-0.1508758062500002,Ni6Sb2,mp-672371
0.0,-1.9726813758984374,Ce4Ge1S3,mp-675328
0.0,-2.2386571487500007,Yb4Co4O12,mp-687081
0.0,-0.5439599500000005,Ba2Sb6,mp-6950
2.1031999999999997,-1.9542971530266664,Ba2Sn4H4O8,mp-696946
4.177700000000001,-0.6193589655741234,P8H48S8N24,mp-707324
5.7482999999999995,-2.709154736059612,Ba1Si1P4H2O14,mp-722278