band_gap,formation_energy_per_atom,full_formula,task_id
3.9789,-2.06898198625,Ba8I12O2,mp-29909
2.3221,-1.7620477057007575,Sr6B4S12,mp-30239
2.1648,-1.7982428360227285,Bi6Sb2O14,mp-30304
3.1105,-1.858908904361112,K4Sb12O20,mp-31001
1.6778,-1.084480491272322,Zr4P8S28,mp-31014
1.2468999999999992,-0.2678082230000001,Al2Si2Te6,mp-31220
4.4044,-2.7053636541266664,Pb1F2,mp-315
0.18720000000000026,-0.2700891216666665,Mg2Ge1,mp-408
2.2711,-2.376916117291667,Ba3Zn3O6,mp-4236
5.4085,-3.3421524172527466,Sr3P2O8,mp-4632
3.3085,-1.757503253461539,As4Pb6O16,mp-505368
3.237,-2.6593422262787363,Rb2Gd2W4O16,mp-510541
3.1114,-2.656348530545455,Mg34As12O64,mp-531778
3.4752,-2.504968000649631,Rb2Ta2Ge6O18,mp-540632
2.5192,-1.7790692544642863,Ca8Ge4S16,mp-540773
2.2854,-1.8132585323214288,Ba8Ge4S16,mp-540805
1.9415,-1.6260686990033335,Fe2Cl2O2,mp-540828
2.6311,-1.1406667219300768,Cs8Ag4I12,mp-540881
2.5973,-0.576134454583333,Ge8Br16,mp-541610
1.4087000000000005,-1.1536278029886375,K8Re12S24,mp-541638
1.9493,-1.8952737552170145,La6Ag2Sn2S14,mp-542888
2.8454,-1.597522413498334,Fe8As8H32O48,mp-543041
3.236,-3.0307713245833328,Sc2Br2O2,mp-546279
1.9232,-2.480301574152,Ca2Fe2Cl2O4,mp-549711
5.065,-3.153527042366884,K4Y4P8O28,mp-554508
0.3109000000000006,-1.2693684201562498,Ba12Sb16O4,mp-555414
3.4724,-2.032874276890625,K8Dy8Se16O64,mp-555816
2.4915000000000003,-2.683312031760582,Na2Nb8Tl6P4O34,mp-556062
1.8467,-2.0052776205500003,Na12Ga12Te8O48,mp-556143
3.3438000000000003,-1.4964924406730775,Pr4I12O36,mp-556346
4.3407,-2.453397026258831,Cs4Tm4Se4Cl8O12,mp-556414
3.9011,-2.2999637097815624,K2Sn2S2O8F2,mp-557399
4.0019,-2.5569120732678567,K12P4O16,mp-557753
4.0854,-3.3456439974244447,Ba4Ho2B4Cl2O12,mp-558195
5.1017,-3.4455979608674823,Rb2Zr2Cd2F14,mp-558514
4.5949,-2.935351217341837,K8Mg8P8O32,mp-558795
0.2664,-1.6950048118253325,Na12Mn6O12,mp-559081
3.3079,-1.7955782273475005,K12Zn4N4Cl16O12,mp-559309
4.5794,-3.4889810364242426,Ba6Na2Nd6Si12O40,mp-559502
2.3178,-1.9149910985530312,Na4In4As8O28,mp-559710
2.2502,-2.157910175198979,K6Mo24P2O80,mp-560580
2.91,-2.2905078202,K6V6Bi4O24,mp-560736
4.1718,-3.2338751885277777,Ba12Na4Si8O30,mp-560889
3.4466,-1.501469081634616,Y4I12O36,mp-560995
3.6472,-2.425817359220824,Cs6Al2Ge4O14,mp-561315
1.8543,-2.7885304263939994,Ba4Ce1Mn3O12,mp-561553
0.08860000000000001,-2.931081120279285,Cs4Al4Ag4F24,mp-561999
3.1125000000000003,-3.2708607133333345,Gd8W4O24,mp-565757
1.2465000000000002,-1.2106057214022987,Rb6Mn6Br18,mp-568231
1.5275,-1.3212180806874072,Ca8Ti2N8,mp-568469
1.425,-0.7024720004625635,Rb12Ta8Ag4Se48,mp-569378
0.2852999999999999,-0.3061073123809526,In5Ag1Te8,mp-569813
1.5028,-0.7341548554131943,Na16Ga48Se80,mp-570622
1.3194,-1.1311398592771886,Cs2Er2Ta12Br36,mp-571010
3.6954,-2.6013356001005747,Cs2Pr2Mo4O16,mp-572452
1.6868,-0.944203730072286,P4I4Cl32,mp-573373
1.3805000000000005,-1.0931499902011501,Cs2Ho2Zn2Te6,mp-579556
2.9879,-2.977892690141988,Cs16Nb32O88,mp-581217
1.7736999999999998,-0.7990013109089436,Cs12Ge4As4Se20,mp-582708
1.8486,-1.5006766349633331,Re4Cl12O8,mp-607436
1.2568,-2.7023637957499997,Ca4Mo4O12,mp-607467
0.4572999999999996,-2.4781437034375022,Gd8S12,mp-608146
3.1668,-2.580693618177083,Li4Ti4As4O20,mp-6113
0.3763,-1.7095215143505418,Cs8Cu4Cl16,mp-616439
0.5230999999999999,-0.9802766483333336,Ba12In4As12,mp-620346
2.1282,-0.9537126860180112,K8Rb4Bi4Se12,mp-621964
1.5181000000000004,-2.558097933975001,Ba4Na1Sb3O12,mp-6273
1.9853,-0.8792252595412562,Cs4Si2Se8,mp-637251
2.157,-1.1312329702413797,Cs1Ge1Br3,mp-642739
1.8855,-0.6417425300476189,K4Li2Al2P4,mp-6450
0.9209,-1.6229725969196969,Nb24In4Cl60,mp-651907
4.7096,-2.61310217952381,Ga1P1O4,mp-677335
2.2125,-1.3274159245914277,Li1Ca4B3N6,mp-6799
1.197,-0.7553726501854089,Cs6Nb4As2Se22,mp-683903
2.0934000000000004,-2.2461606643209993,Na4Mn8V12Pb8O48,mp-706292
2.7886,-0.5470777555614809,Ca19Mg8H54,mp-734733
2.8003,-2.0213598667826123,K2Fe6P16H44O72,mp-735701
0.6523999999999999,-2.2416893697829656,Rb1Hg1F3,mp-7482
2.3249,-1.3545518875562073,Rb3N3O6,mp-752580
1.7029,-2.5150453501136383,Lu4Pt4O14,mp-753414
2.1145,-1.980390598000001,Li1Fe1C2O6,mp-753899
3.5715000000000003,-3.6623553867708334,Ba3Hf2O7,mp-754128
5.4657,-2.611862385010049,Ba4Ca2P8H12O32,mp-758007
5.3482,-1.6839189895511686,P8H40N8O24F8,mp-759962
3.8741,-3.8534692167857143,Sr4Lu8O16,mp-772820
0.0807,-1.9719979127083327,Li4Fe2O6,mp-774155
2.4458,-1.3902630082250007,K1Li1Zn1S2,mp-774907
1.1640000000000001,-2.5969268453781518,V3P6W1O24,mp-775437
4.1484,-1.5983691246392635,Rb4Mg2H24Se4O28,mp-780006
1.5818999999999996,-2.496556733452382,Ti4Fe8O16,mp-780585
2.645,-2.6969741990175002,Ca1Pt1F6,mp-8255
0.8761000000000001,-1.1364819042916672,Ba1Ag2S2,mp-8579
1.4758000000000004,-1.6137458598495376,Ba4In2Bi2S10,mp-864638
1.9701,-3.1855751858611105,Na2Hf2O5,mp-865500
0.9164000000000004,-1.5773743225,Bi3Br1O4,mp-866311
4.88,-0.3720844360948487,Na2Sc2B8H32,mp-866649
0.3197000000000001,-0.6573513662499999,Sr2Sn1Hg1,mp-867169
2.9322,-2.2559091867516416,Rb2Na4B2O6,mp-8872
2.3503,-3.0377424436280487,Ca10V6O25,mp-891956
2.1556,-2.141926311707974,Cs1Sm1S2,mp-9082
2.1822,-1.5952912722291672,V4Se4O22,mp-972384
0.2889999999999999,-3.213117139571111,Na4Nb2F12,mp-9753
0.3206000000000002,-0.7672270345019155,Rb2Hf2Ag2Te6,mp-9780
1.1886,-0.5478745276093746,Na8As8Se16,mp-984519
1.8199,-0.7459513538645833,K2Au2Se2,mp-9881
0.2260999999999997,-0.4894285944522857,Mg6Bi2P1N1,mp-989522
1.9849,-0.7432380124280001,Sr4Re4N12,mp-989623
0.8674,-0.8036752304279986,Ca2Mo2N6,mp-989635
3.1968,-2.6471130942389456,Ba4Ag4P12O36,mp-10070
5.6029,-2.9246189507567744,Cs8Sr8Li12B12P24O96,mp-1019609
3.7308,-1.1010265616899997,K4Si8N12,mp-1029418
0.4249000000000001,-1.2668129463462492,Li16Ta16N32,mp-1029625
1.3772000000000002,-0.6246747011899999,Ca4Sn4N8,mp-1029633
2.0385,-2.8206275639062506,Mg14Co1Ni1O16,mp-1035281
4.7579,-3.10455533823052,Li2Sc2P4O14,mp-10517
1.7432,-3.0963741379999994,Sm3Au1O6,mp-10560
0.7382999999999997,-1.0656396050000003,Y1Tl1Te2,mp-1065514
1.2778999999999998,-2.644364637708333,Sr2Fe1O3,mp-1071505
2.7913,-0.4583849835244445,Li2H6Pt1,mp-1078552
2.3326,-2.146813991082975,Cs2Tm2S4,mp-1078990
1.8392,-2.7718160350000005,Sr2Li1Re1O6,mp-1080625
0.6982999999999997,-0.6850954554760001,Mg12Sb4N4,mp-1080847
1.7466999999999997,-1.9530647110590282,Ba2Nd2Ag2S6,mp-1095616
2.0744,-2.1187523793854166,Na1Fe1S2O8,mp-1102092
3.6679,-3.3974990332933332,Ba2Sn2F8,mp-1103397
0.21579999999999974,-0.8584207220000003,Ce6Bi8Pt6,mp-1105392
2.0656,-0.9120749242968752,Li4Ga4Se8,mp-11582
5.5258,-2.8709066882674135,Rb1F1,mp-11718
1.1378,-0.8388022635401791,Na4Ga4Se6,mp-1173753
3.4165,-2.3976003743333325,Sr24Te24O72,mp-1179320
0.051899999999999835,-1.234435982656251,Pr2Pd6S8,mp-1188365
0.8716999999999997,-1.173907584589121,Ba4In2Sb2Se10,mp-1189339
1.4969,-1.9494006732954556,Ba2Hg2As4O14,mp-1190454
0.14500000000000046,-0.38150164499999895,Ba2Si18Rh4,mp-1190822
2.7077,-2.7063800795748305,Ba1Fe2P4O14,mp-1190858
1.6566999999999998,-1.6584198054170831,Ag2As2Se6F12,mp-1191037
1.1376999999999995,-1.5563053392685717,Ho12Te12N4,mp-1192541
4.4909,-3.5700151861002034,Pr8P2Cl2O16,mp-1194001
2.4839,-2.625457213850575,Cs4Nb4V8O32,mp-1194659
4.252599999999998,-2.8612302315852496,Rb8Li4Nd4B8O24,mp-1195542
1.9488,-1.6092584440364586,Ba12Sb8S28,mp-1195624
5.3335,-2.086064885611046,Rb8H8S8O32,mp-1195896
2.9482,-1.2634075585450024,Rb16P8S24,mp-1196612
2.5385000000000004,-1.0493757055357145,Ga16Pb8S32,mp-1196984
1.7097,-1.7328646450612144,Cs11Tl6Cl29,mp-1197143
0.5912000000000002,-1.1885390476876792,P2W8Cl22,mp-1197519
2.4771,-2.039294104034598,Sr8V12Se20O72,mp-1197632
1.4856999999999998,-2.8125701326906785,Ba16Re6O37,mp-1197806
1.2836,-0.6548367546514862,Cs20As20Se36,mp-1197848
2.8165,-1.2712893522509086,Mo4N8O32,mp-1198436
1.8304,-1.4092876736184208,Tl2V4I6O26,mp-1198439
1.5407,-0.7043171369980001,Mo4H32S16N8,mp-1199487
0.2889999999999997,-1.7407570093452391,Ba4Cu4Te8Br4O22,mp-1199575
2.0849,-0.4218505429196432,Cu8As36P12S36I8,mp-1200181
4.1401,-2.0705037397323047,Cs8Cd8Mo12O48,mp-1200495
4.323,-2.6351739380895367,Cs12Ga12P48O144,mp-1200733
0.5148000000000001,-0.921867868251018,Cs36Fe8Se28,mp-1201016
3.0142,-1.7365435033411791,Rb12B4Se12O48,mp-1201509
0.2458,-3.1682501915005545,Eu10B6Cl2O18,mp-1202692
1.0578,-2.598329310621868,Rb4Mn4P8O28,mp-1203377
5.6307,-0.503248715688666,Li4B4H28N4,mp-1203555
3.716,-2.6055128354804094,Na2Ca2Mn4P6H4O24,mp-1204868
2.5553,-3.3928125536847817,K4La2Ta10O30,mp-1204933
1.8029,-1.643209058940973,Ba4Nd2Ga2Se10,mp-1205363
1.4147000000000003,-0.5555225999999998,Li1Mg1Sb1,mp-1207082
0.033800000000000274,-0.3333065588679251,Y12Nb8Al86,mp-1207860
1.6510000000000002,-1.6560440971354176,Tb8Ag8S16,mp-1208370
1.8649,-3.1176086781714285,Sr8Co8F40,mp-1208712
4.4041,-2.662458775066483,Rb4Y8Cl28,mp-1209182
2.5331,-1.5552669167187505,Sb24I8O32,mp-1209215
7.5054,-3.9143087158316483,Rb2Ho2Be2F12,mp-1209229
4.4288,-2.8626889394460595,Rb2Bi6F20,mp-1209295
1.5657999999999994,-2.5782327102500004,Pr4Zn2Pt2O12,mp-1209351
5.2353000000000005,-2.164802275147472,Rb4Al4Cl16,mp-1209422
2.1708,-2.2079968843750004,Li4Fe2Ge2O8,mp-1210923
5.0556,-2.639901307698413,Li4Ga4P16O48,mp-1211020
3.1148,-3.0339204670289868,La3Ti1Ga5O14,mp-1211258
3.2042,-2.858265416236112,K6Tb2B4O12,mp-1211631
1.9582,-2.50931098325,Ba6Zn2Sb4O18,mp-1214487
0.5988999999999999,-3.046976951428236,Ba2V1Cu2F12,mp-1214695
2.8895,-2.526878758854167,Ba4Cd2Ge4O14,mp-1214739
0.9223000000000005,-0.715283433697917,Zn1Ag2Ge1S4,mp-1215558
3.0343,-3.087760504510204,Zr8Ni2P12O48,mp-1215801
1.5412999999999997,-0.6403732656093751,Tl5Sb10As3S22,mp-1216976
2.5824,-3.014948043489584,Ta4Ti4Tl4O20,mp-1217858
1.4764,-2.097092941369049,Sc1Sb3Pb4O13,mp-1219278
1.6875,-0.9400590425432692,Na9Sm1Ge4Se12,mp-1220845
4.296,-1.4381750454206248,Na2H6Se4O12,mp-1220990
1.4575,-1.0728133469062504,Na1Bi1S2,mp-1221125
0.0020999999999999908,-0.23683510687499965,Li4B12,mp-1222413
1.2837,-1.2534562596394236,Li6As1S5I1,mp-1222482
1.9697999999999996,-2.190724427472827,La6Mg1Si2S14,mp-1223141
1.4572000000000005,-2.081334128692309,K1Fe1Sn3O8,mp-1223574
3.743,-2.7588586580513788,Cs4Mn2Ni2F12,mp-1226311
4.4484,-2.4604720538692053,Cs6H2S4F24,mp-1226414
1.6549999999999998,-0.8073420076185344,Cs4Sb16S26,mp-1226852
3.3748,-2.2453428270000004,Ca1Cd1C2O6,mp-1227329
0.03259999999999952,-2.1709179389166673,Ba6Bi2Ir2Ru2O18,mp-1228361
1.9035,-0.8963207489305556,K4Zn6Se8,mp-1232308
0.3455000000000004,-0.04573011687500017,Cd8Sb8,mp-1321
2.1881,-3.4280326852187506,Er2Se1O2,mp-13975
0.39380000000000015,-0.4050896184999999,K6Sb2,mp-14017
4.3393,-2.8574617295941565,Ba2Zn2P4O14,mp-14345
3.7188,-3.107098770113637,Tm8Ge8O28,mp-14708
1.8739,-1.3782520729507912,Rb4Ta2Ag2S8,mp-15217
2.3407,-2.5230813180538623,Rb4Mo8P12O52,mp-15405
2.592,-3.284622437558593,Pr16Si8S12O28,mp-16159
2.7118,-2.665351409321429,Na4Cr4P8O28,mp-17142
3.6122,-2.9061485727857144,Na4Er4Ge4O16,mp-17487
4.9551,-2.5565929695133884,Cs8Ni6F20,mp-17733
2.584,-3.3703572038867198,Tb8Si4Se4O16,mp-17913
1.2481,-0.6989511604375003,K8Ga8Te16,mp-17965
3.844700000000001,-2.635600900851732,K4In4P8O28,mp-17966
1.0408,-0.4658247517499999,K14Ta2As8,mp-18073
1.0678999999999998,-1.538106102213541,Ba8Mn4Se12,mp-18513
2.9836,-2.82053234900875,K8V4O8F12,mp-18832
3.6292,-1.7842801815134082,K2Mn1Se2O6,mp-19137
2.1224000000000003,-2.0059755900000003,Ba1Co2As2O8,mp-19143
2.7928,-3.2375297069444438,La8Mo4O24,mp-19300
2.0201,-2.818023610583333,Ti2Fe2O6,mp-19417
3.4283999999999994,-3.0010767742500013,Sr2Mg1W1O6,mp-19420
3.0334,-2.1453384642142868,Na2V2Cd2O8,mp-19449
0.016300000000000203,-0.9408506899999992,Gd1Si2Pd2,mp-19753
0.003099999999999881,-0.5188995070000004,Ca1Ge2Ru2,mp-19791
0.0014000000000002901,-0.4970009519999991,Ce1Cu2Ge2,mp-20173
2.2689000000000004,-0.8268566813660712,P4Pb4S12,mp-20199
2.3738999999999995,-2.288122113912338,Co8P8O28,mp-20274
1.742,-3.146074635314,Ba3Mn1Nb2O9,mp-20921
2.2575000000000003,-2.232347337500002,V4Pb2O12,mp-21126
0.012900000000000134,-0.5967648055555562,Eu1B2Rh3,mp-21127
1.8021,-1.7728578521428582,Cd2Fe4O8,mp-21333
3.0433,-2.091082514464285,Li8Ni4Ge12O32,mp-21650
0.19530000000000006,-2.1496844679166665,Ba6Ni2Ru4O18,mp-22363
1.2946000000000004,-0.3696378249999999,Bi1Te1I1,mp-22965
1.0958,-1.8634508414306896,Rb4Nb6Cl18,mp-22976
4.609800000000001,-3.055206198608696,Na8Al6Si6Br2O24,mp-23147
1.7552,-1.3028794149583334,Na6O6,mp-2340
1.1891,-0.8110270496733335,Sb1I3Cl8,mp-23536
5.2329,-2.23814561496596,Rb2P2H4O8,mp-23667
2.0447999999999995,-2.115327683041111,Ca4Co4As4H4O20,mp-23815
2.7049000000000003,-1.3991388149537498,Zn2H4Se2O10,mp-23969
4.845,-1.7439432037017637,Rb4Zn2H24S4O28,mp-24112
0.017100000000000115,-0.8849361207933331,Ca2N1,mp-2686
3.7151,-3.4261933649571423,Sr8Fe8F40,mp-27338
4.3121,-3.032604821367153,Rb6Si10O23,mp-27376
2.2528,-0.6070100020982149,Ge8S12I8,mp-27928
1.1569,-1.4880406282812504,Ba4Hg4S8,mp-28007
3.9954,-3.392412254843749,Dy8Ge4O20,mp-28351
1.7705000000000002,-0.9801275296733332,Tl2Au2Cl8,mp-28368
1.1256,-0.7955530309104765,Ag4Pd2Cl8,mp-28557
1.1791,-1.1441032223039995,Ta2I4Cl4,mp-28683
0.04079999999999995,-0.2994411176666659,Zn1B2Ir2,mp-28786
3.3489999999999998,-1.4199924239360002,Ca4Si10N16,mp-28922
1.1297,-0.3455999955555558,Cd32Sb16I24,mp-29044
2.4275,-2.8570798677820006,Ba8Gd4Cl28,mp-29084
5.9558,-3.541540149523809,Lu2P2O8,mp-2940
0.021100000000000563,-0.19071749657894688,Mn36Nb8Ge32,mp-29905
0.01890000000000036,-0.8907346945238092,Hf5P7Pd9,mp-29933
1.6059,-0.7154194618181821,Ga2Pd1Br8,mp-30945
3.542,-1.5649061225000007,Ba2I4O12,mp-30991
4.7797,-3.5108050094214285,Zr4Tl4F20,mp-30997
6.8979,-1.3809197897324998,H20N4F8,mp-31043
2.355700000000001,-3.0461068886111127,Ta4Fe2O12,mp-31755
2.1089,-3.121256976250001,Sr4Ta2Fe2O12,mp-31760
5.561,-3.2191286745000016,Dy16B48O96,mp-3261
2.4308,-2.9151628626041663,Zr4S4O4,mp-3519
3.0985,-3.6716124223124993,Tm2S1O2,mp-3556
3.7502,-3.057642812708334,Li4Zr2O6,mp-4156
2.327,-1.7831370358928578,Sr4Ge2S8,mp-4578
5.650400000000001,-3.4681236295238094,Pr4P4O16,mp-4589
2.8137,-2.1204107268750008,Li8Te2O10,mp-4804
3.0685,-2.6578426994642856,Sr8Ga16O32,mp-4851
0.03779999999999984,-0.8356518998809513,Y4Co20P12,mp-505011
2.0173,-1.3015041396379308,Rb2Hg1O2,mp-5072
0.9776000000000002,-0.2748735204525863,Cs6Ge8Au2,mp-510341
4.2241,-0.43252601833672333,Cs2N6,mp-510557
1.7161,-1.211132698113637,K12Hg2S8,mp-5114
4.3804,-3.2910170766520013,Ca12Si4Cl8O16,mp-540868
1.0340999999999996,-3.2321274417500008,Nd4V4O12,mp-541129
3.9960000000000004,-2.5480582062777795,K2Zr4As6O24,mp-541282
1.6899,-0.6918005362398224,Rb8Ge8Se20,mp-541880
3.3023,-2.8408611152850543,Sr4Mn8P8O32,mp-541990
1.1730000000000005,-0.7218252613841909,K6Nb4As2Se22,mp-542545
0.5442999999999998,-2.0369479752232142,Gd2Zn2P2O2,mp-545506
1.7729,-2.8457927197500004,Ba2Tb1Bi1O6,mp-552191
0.07950000000000013,-2.137888512274286,Sb12Au12F88,mp-554764
3.7105,-2.3487665596818186,Na12Be6Ge12O36,mp-554828
2.9057000000000004,-3.2254854708333336,Ba4Nb8O24,mp-555050
3.6616,-2.0186424202413797,Cs4Li6Ga2O8,mp-555140
2.6196,-2.1539020525503574,Sn4P2Cl2O8,mp-555836
1.6261,-1.4136824322795007,Nb2Tl5S4Cl9,mp-555900
4.987,-2.002813416720572,P4Cl8O4F4,mp-557522
3.2936,-1.3857800475,Zn16Te8Br16O24,mp-558350
4.3844,-2.3028549035464296,Na2Ge8P6O24,mp-558862
2.1162,-2.9075570008771927,Ca30Re12O72,mp-558966
4.559900000000002,-2.670013984090584,Rb8Mn4P16O48,mp-559207
3.1498000000000004,-1.565965061168333,Sb4Te4Cl4O12,mp-559379
1.8684000000000005,-2.833649628785715,Sr2V4P4O20,mp-559580
1.7783999999999995,-1.1749812254913043,Ba18Nb4C2N20O2,mp-560022
5.7359,-3.3652174588952004,Li8Ca12Be12Si12O48F8,mp-560036
3.2379,-2.539764386785715,Sr4Tl4V4O16,mp-560156
1.2873,-0.9785425614045145,K32Nb16Se88O8,mp-560666
3.155,-1.178371686981481,K2Ge1I6O18,mp-560685
4.999700000000002,-2.8939466767067903,K12Al4B32O60,mp-561447
5.0193,-2.633158292615474,Cs4Te2O2F8,mp-561647
3.2536,-1.5078822947451576,Cs9N9O27,mp-561851
1.2016,-0.4662989149333337,K32Nb4As20Pb4,mp-567424
1.9607,-1.807200573556,K4Mn4Cl12,mp-567530
1.1841,-0.471795092125,K24Nb4Tl4As16,mp-567820
0.7026000000000003,-1.4707147919062502,Sm12Cu4Se24,mp-568224
1.2829000000000002,-0.186173839251488,Ag2Bi2P4Se12,mp-569126
1.9209,-1.314316313064138,Rb2Au2Cl8,mp-569442
1.1652999999999998,-1.299602078971354,Sm6Cu2Ge2Se14,mp-570226
1.8831,-0.7933247733848212,K4Y4P8Se24,mp-571057
0.6061000000000001,-1.553940624,Pr20C8Br32,mp-571575
1.1189,-2.4688183037001785,Rb12Mo16P16O88,mp-579214
3.9241,-2.9087536773103704,Ba6La4C10O30F4,mp-581361
1.7969999999999997,-1.9507939079947918,La6Cu2Ge2S14,mp-582767
0.2490999999999999,-0.4999031669348655,Cs4Mn6Te8,mp-5927
4.8355,-1.0739858371947673,Mg4P6S1N12,mp-6137
5.0247,-2.3793398710157145,Lu4H12O12,mp-625468
4.3515,-1.2610805971485717,H36Br4O16,mp-625661
5.6953,-3.5508392630422225,Al8Si4O16F8,mp-6280
3.1859,-2.585291533736065,Cs8Co4P16O48,mp-643125
1.3076,-2.142768616816999,Mn16Ge16O48,mp-643577
0.9802999999999996,-0.8459611526562503,Cd2Si2Cu4S8,mp-6449
3.645,-2.137998511152778,K4In4Mo8O32,mp-650228
4.3991,-2.772466652785236,Cs8P4O12F4,mp-6557
0.8983,-2.500568702609021,K4Cu2P8O24,mp-6598
5.2119,-3.4518796801246943,Sr10P6O24F2,mp-6669
2.8349,-2.9418587858587437,Rb18Nb30P12O114,mp-667344
0.4149999999999996,-0.3841693931250001,Ga12Ru4,mp-672204
2.1564000000000005,-2.5866143689166665,Mg8Sb4O18,mp-676305
5.5089000000000015,-3.2183229296875013,Tb16B48O96,mp-683867
2.656,-3.27660054175,Ca12Hf8Fe8Si4O48,mp-693284
2.6552,-2.4798468312500006,In2B2O6,mp-7027
2.49,-1.4133201961646915,Cs2Er2Zn2Se6,mp-7155
2.019,-1.8902587642500008,Fe16O24,mp-715572
0.6038000000000001,-0.5918842343333335,K2Cu2Te2,mp-7436
2.0479000000000003,-1.459574464151787,Hg4S2O8,mp-7461
3.6139,-2.2886918151012865,Na8Zn4P4H4O20,mp-758238
0.2511999999999999,-2.495994789018519,Na16Nb10O28,mp-762344
2.1115,-2.000359020375,K40Y8O32,mp-769176
0.3988,-2.0443661016114287,Li6Mn8Fe4O24,mp-769530
3.4364,-3.7585404167857135,Sr4Sc8O16,mp-770771
1.3761,-1.9002776206249996,Li6Bi2O8,mp-774702
1.9251,-1.0373553972016665,Sb2H8N2Cl12,mp-849325
2.8632,-1.962501870511364,W8S16O64,mp-850781
3.701,-2.657755668695,Ho2Cl6,mp-864662
0.4935999999999998,-0.7028617699479168,Cu4Bi4Pt4S12,mp-865018
2.2948,-1.2578979646357764,Rb2Na2S2,mp-8799
2.8624,-2.3982379347222227,Ba1Sb2O6,mp-9127
4.4569,-3.384557861354168,Ba4Mg2Si4O14,mp-9338
0.4713000000000003,-0.5859708538888894,Ti1Sn1Pd1,mp-961682
3.9108,-2.7109784469230767,Ba3As2O8,mp-9783
3.7127,-0.9714496578552378,Ca7H12Cl2,mp-984055
4.1306,-2.571685662284483,Rb2Sm2C4O12,mp-9842
1.5360999999999998,-1.2484116381249994,Li2Au2O4,mp-996959
1.4929,-2.875795503076924,Ca2V3O8,mvc-14765
0.6704999999999997,-0.6202637469999999,Ca1Be2As2,mp-1018630
2.9415000000000004,-1.3289509943911109,Sr4Li4Al12N16,mp-1020627
2.9986,-1.48382464540531,Rb4Na2N6O18,mp-1020630
3.4174999999999995,-1.2178732557430765,K8Si40N56,mp-1029584
0.5736000000000003,-0.7834283821379315,Rb2Te2Pd1,mp-1070356
2.2033,-2.8066199794999998,Ba2La1Bi1O6,mp-1078409
0.633,-1.7246107906707493,Zr4Se2N4,mp-1079726
0.7604000000000002,-0.4735952434827588,Cs4Sb4Pt2,mp-1080614
2.5466,-2.9239720351262517,Zr6N4O6,mp-1101160
0.2756000000000003,-0.5907538133333331,Ba4Ca4Pb4,mp-1102214
2.766,-1.7049300580066664,Al2Cd2Cl8,mp-1102961
2.8256,-0.9527487284278848,Na4Mg1Si2Se6,mp-1103351
1.4045999999999998,-1.1035288135344823,Cs2Y2Zn2Te6,mp-1103744
1.1382000000000003,-1.5214977200885422,Ba5In4Te4S7,mp-1105201
0.3818999999999999,-0.7260391732499997,Nd6Bi8Au6,mp-1105400
0.3466999999999998,-0.3683401641666671,Sr8Si4,mp-1106
5.3426,-2.4928882046473797,Cs2Na1Tm1Cl6,mp-1112567
0.07920000000000016,-0.016118434433333276,Mg149Os1,mp-1185600
1.4646,-3.262919982250001,Sm4V4O12,mp-1188225
1.2709,-1.6519853142187495,Ba4Gd2Ga2Se10,mp-1190156
0.4552000000000005,-0.7014257512272728,Na6Ca6Al2Sb8,mp-1190339
0.3266,-1.7707619062351183,Pr8P8S8,mp-1190998
0.7008000000000001,-2.42376432191246,Cs4Cu2P4O14,mp-1191467
1.4265,-1.8253124308300008,Mn6Zn2O14,mp-1192094
5.1398,-3.006326700234694,K6Tm2P4O16,mp-1192398
2.3677,-1.5880469588713937,Cs4Ba4P4S16,mp-1192526
2.1346000000000003,-1.0140761770856794,Cs4Sn4P4S16,mp-1193634