band_gap,formation_energy_per_atom,full_formula,task_id
3.7274,-4.020394172386364,Sm4Hf4O14,mp-35249
0.0,-0.8354582185000006,Sm1Si2Ni2,mp-3939
0.0,-0.46253720399999876,Tm1Mn2Ge2,mp-3985
5.199199999999999,-3.2502817458544815,Ca10P6H2O26,mp-41472
0.0,-0.42669556416666693,Nd1Ag2Ge2,mp-4229
6.0218,-2.474818734540442,Al4S6O24,mp-4417
0.0,-0.7927193610000003,Pr1Si2Ni2,mp-4439
0.0,-0.03959689151034525,Cs2Na4Si34,mp-4877
0.0,-0.6774779720833332,Li8Y8Sn8,mp-504790
0.0,-0.6016204893181812,Nd3Cu4Ge4,mp-505292
2.0217,-1.3653864357480245,Cs2Sm2Cd2Se6,mp-510062
1.5861,-1.158699858117816,Cs2La2Zn2Te6,mp-510460
0.0,-0.33789024187499983,Tb1Co1C2,mp-5106
3.1763999999999997,-2.003481845128889,In4Te4O12F4,mp-510727
0.0,-0.83247739875,Ho2Si4Ni2,mp-5150
0.0,-0.9023297204999992,Sm1Ge2Rh2,mp-5161
2.6066000000000003,-1.8398635954807694,Tl4V2O7,mp-541368
0.0,-0.5126624404545449,Ce4Co2Sn5,mp-542752
0.0,-0.11180571362745147,Y8Fe56B4,mp-5434
0.0,-0.29503191849999977,Ba4Al8Si8,mp-5506
3.5780999999999996,-3.094420316555556,Sr18Tm2V14O56,mp-555221
2.7462999999999997,-1.9951244092456892,Rb4Mo2As4O18,mp-555873
4.3878,-3.034253830869675,Rb12Y8B12O36,mp-556206
1.346,-2.5549173116071424,Sr4Fe2Br2O6,mp-556507
0.5768,-1.61989661829,Ru2Cl2O4F12,mp-556834
3.6182999999999996,-1.927909047474843,Cs6Na2Nb6H36O37,mp-557127
1.0356999999999998,-1.5768408983958337,Na12Pb2O10,mp-557401
3.7748000000000004,-3.0420023926730773,Na12Sc4Si8O28,mp-557463
2.6327,-1.6604274189687493,Li4Fe4Se8O24,mp-558555
3.4542,-3.012039073480713,Cs6Mn6F18,mp-558702
0.0,-1.69616361374521,Cs2Os4O12,mp-559998
2.0797,-1.3289828097621421,K4Ru2N6Cl6O10,mp-560322
4.610799999999999,-2.488360844614,Na4Ni4F12,mp-561480
0.0,-3.2647890576190477,Li2Ti4O8,mp-5670
0.5093999999999999,-0.9833995563749995,K4Sm8Sb12Se32,mp-567322
0.0,-0.3714994229166666,Li2Ag1Sn1,mp-567347
4.736400000000001,-1.8228511605066668,Al4Tl4Cl16,mp-567716
0.0,-0.2256971766666669,Li1In1Ag2,mp-567787
0.0,-0.1522382869230769,Ta1Be12,mp-567842
4.3502,-2.03244600524138,Cs1Yb1Br3,mp-568005
0.0,-1.7445250561733334,K2W1Cl6,mp-568914
0.0,-0.4064411555999996,K1Co2As2,mp-569408
0.0,-0.5702221793055559,Er16In4Rh4,mp-571107
0.0,-0.6156926107142857,Li4Nd4Si6,mp-571109
0.0,-0.6451849222222223,Zr3Al3Ni3,mp-5723
0.0,-1.0251210128571429,Ce1P2Ru2,mp-574244
0.0,-0.6371111699999998,Hf1Al1Ni2,mp-5748
0.1993999999999998,-1.0653669891843973,Y32B8C16I38,mp-579614
0.0,-0.2560949917957747,Nd26Cd116,mp-581958
0.0,-0.1963339900000003,Li1Rh1,mp-600561
0.0,-0.16916617461538516,Tm1Mn6Ga2Sn4,mp-6072
0.0,-2.6141855697500005,Ba6Sm2Ru4O18,mp-6077
0.0,-0.9291989708333345,Eu4Sn4Pt4,mp-608517
0.0,-0.5187196611805559,Er1Ni2B2C1,mp-6098
0.0,-1.7978284838636371,Ba8Cu12O24,mp-615789
0.0,-1.3095010763541666,Ti24S12,mp-616559
0.0,-2.240877115416667,Ba2Sm1Cu3O6,mp-622576
0.0,-0.5602369082142857,Pr3Ga10Ni1,mp-632810
3.4821000000000004,-2.818422225033334,Na2In2Si4O12,mp-6333
4.488300000000001,-2.8167594097649995,Na2Ca2Si2H2O8,mp-634418
0.0,-1.6137410860714283,Tb1P1,mp-645
3.0609,-2.587020245270833,K8Ti8As8O40,mp-6488
0.0,-1.7970547776666663,Ba4Na2Cu6O12,mp-6496
0.0,-2.1114980472064286,Ce24S16Br4N12,mp-680421
0.9046000000000003,-0.28135267527709373,Rb16Li8Sn32,mp-680436
0.014300000000000423,-1.2493366694999999,Sc8Te12,mp-685069
2.2526,-2.9488842571164033,Sr2Ti2Fe2P6O24,mp-695093
0.0,-0.6704544387500002,Si4Pt4,mp-696
2.6285,-2.2922001278065474,Na32V8S24O104,mp-699658
4.7495,-2.394382379345357,Na8P4H4O16,mp-703305
5.836,-2.212460137528077,Ca8H16S16O64,mp-703574
0.0,-0.514306088,Sr1Cd2Sb2,mp-7432
1.9386,-2.350315987051111,Mn2V4O12,mp-754274
1.4529,-1.2559451110882893,Zn8Hg8H8Se8O44,mp-759925
0.8935000000000001,-2.181708447544348,Sb2H4Au1F16,mp-760678
0.36329999999999973,-2.831918511746032,Ti3V1Sn2P6O24,mp-766224
1.2834999999999999,-0.5925204551644438,Li2Te2H24N8,mp-773582
0.5531999999999995,-3.1274940630357153,Li8Ti12V4O32,mp-775161
0.0,-0.6419071025000006,Sm2Si2Cu2,mp-8121
0.0,-0.6511769483333332,Lu2Si2Cu2,mp-8125
0.0,-0.4580623737500007,Si1Ni3,mp-828
0.0,-1.2083109751562495,Pr4Cr4Se12,mp-861512
0.0,-0.43021604749999964,Li1Ga1Au2,mp-861900
0.0,-0.22421762499999875,Sc6Hg2,mp-861910
0.0,-0.5588843699999995,Li1Ta1Rh2,mp-861951
0.0,-0.5943263412499995,Sc2Zn1Au1,mp-862257
0.0,-0.2642063274999993,Sc2Tc1Hg1,mp-862375
0.0,-0.2768450362500001,Li1Er2Os1,mp-862558
0.0,-0.6097388862500006,Sc1Sb1Ru2,mp-862561
0.0,-0.46662032625000016,Pr1Mg1Hg2,mp-862758
0.0,-0.4530694318750004,Pm1Zn2Au1,mp-862976
0.0,-0.44324210625000005,Er1Mg1Hg2,mp-863674
0.0,-0.7814588962499993,Tb1Sn1Rh2,mp-864600
0.0,-0.3365280337499996,Ta2V1Os1,mp-864670
0.0,-0.42385516249999977,Mn1Be2Rh1,mp-864945
0.0,-0.7339805137499997,Hf1Sc1Ru2,mp-865030
0.0,-0.8493621299999994,Mg1Al1Rh2,mp-865155
0.0,-0.28017652999999987,Tm1Mg1Cd2,mp-865227
0.0,-0.3630037149999996,Tm1Zr1Os2,mp-865275
0.0,-0.38699510375000035,Tm2Ni1Os1,mp-865368
0.0,-0.7724031999999994,Lu2Ru1Rh1,mp-865601
0.0,-0.5084951149999997,Li2Ca1Sn1,mp-865964
0.0,-0.9728043724999997,Tm2Ir1Rh1,mp-866085
0.0,-0.7668906266666671,Ti1Al1Ru2,mp-866155
0.0,-0.39606613500000076,Er1Sn1Ru2,mp-866285
4.661,-3.334836352539667,K5La4Si4O16F1,mp-866662
0.0,-0.38306275708333337,Ca1In1Hg2,mp-867201
1.1227,-0.9138815505754309,Rb4Mn2Se4,mp-8717
0.9813000000000001,-0.7530163560000002,Sr1Mg2Sb2,mp-9566
2.0162,-2.604195658132441,Sr6B2P2O6,mp-9702
2.8812999999999995,-1.3523842669359993,Ba4Si10N16,mp-9711
0.0,-0.8033188137500007,Tb2Ga4Pd2,mp-972423
0.0,-0.10009465342911897,Rb5Tl11Cd2,mp-974790
0.0,-0.2667981240689656,Rb1Fe2As2,mp-975359
0.06919999999999948,-0.4896236675000001,Nb1Ga1Ru2,mp-977401
0.0,-1.1395608231249996,Yb1Sm1Pt2,mp-979965
3.5627999999999997,-1.838492567,Zn2C2O6,mp-9812
0.0,-0.1965287260416678,Zn7Sb8Ru9,mp-981247
0.0,-0.282723238125,Li8Ge8,mp-9918
0.41859999999999964,-0.36566381500000017,Li2Zn2Sb2,mp-9919
0.0,-0.11598482250000064,Zr2Cd2,mp-1017540
0.0,-0.47239226000000006,Sr2Hg2Pb2,mp-1019277
0.0,-1.2091466533333335,Lu1Sb1Pt1,mp-10194
1.4498000000000002,-1.235040599668889,Ca16Si4N16,mp-1019576
4.8877999999999995,-2.9600650657702183,Cs4Ba4Li4P8O28,mp-1019708
0.0,-0.2391847017346933,Tl1P1Pt5,mp-1025383
3.311,-0.9460194050481813,Sc4C6N12,mp-1029602
1.9534000000000002,-0.8543378918844451,Mg54W18N72,mp-1030015
0.0,-0.5454168066666668,Er2In1Ni2,mp-1067986
0.0,-0.6020316241666664,Nd2Mg2Sn2,mp-1077034
0.0,-0.6851133455555546,Tm1B2Ir3,mp-1077393
0.0,-0.12964261000000002,Nb2Fe4,mp-1077790
0.0,-0.48539643714285724,Ce1Zn2Au4,mp-1077954
0.0,-1.0421460581514286,Re1Cl6,mp-1078114
0.0,-0.6221122959999995,Yb4Sn2Ge4,mp-1078202
0.0,-0.5111308805555557,Dy3Cd3Ga3,mp-1079242
0.0,-1.1036038093571434,Nd2P4Rh4,mp-1079311
0.0,-0.7071130933333336,Ce3In3Rh3,mp-1079553
0.0,-0.8322414511111107,Hf3Ga3Rh3,mp-1079842
0.0,-0.45800838875000016,Sr2Mg4Pd2,mp-1079853
0.0,-0.37062255277777784,Pr3In3Cu3,mp-1080085
0.0,-0.7014990978571424,Ca2Co12P7,mp-10923
0.0,-0.7607480124999998,La1Ge4Rh6,mp-1095552
0.0,-0.6609182399999997,Ho4Co4Ge4,mp-1095599
0.0,-0.5459802390476192,Fe4Co4P4,mp-1095664
0.0,-0.6624081675000001,Tm4Ga4Ni4,mp-1101855
0.051000000000000156,-1.2004652499999995,Tb4As4Pd4,mp-1101946
0.0,-0.7937449058333333,Er4Al4Au4,mp-1102155
0.0,-0.6565710166666658,Ce4Al4Au4,mp-1102423
0.0,-1.3913580994230772,Al1V4S8,mp-1103718
0.0,-0.3337041242307689,Si7Ni4Au2,mp-1103787
0.0,-0.1436014342857145,Cu5Sn2Te7,mp-1103821
1.6596000000000002,-2.4164637761882153,Gd6Se4N2O2,mp-1104036
0.0,-0.7582404559999996,Sr9Pt6,mp-1104074
0.0,-0.5628613536458333,Lu4B8C4,mp-1105800
0.0,-0.7926878239999994,Y4Ge10Rh6,mp-1106022
0.0,-0.34659607166666717,Zr10Al2Pb6,mp-1106219
0.0,-0.3573454229629623,Ce10Ag2Pb6,mp-1106401
0.31400000000000006,-1.8397974690413794,Cs2K1Ce1Br6,mp-1112787
0.06359999999999921,-0.23535998333333433,Be9Nb3,mp-11273
0.0,-1.0577434066666669,Ti1B2,mp-1145
0.0,-0.6661507166666669,Y3Tl3Pd3,mp-11547
2.2049000000000003,-1.8468451769608838,Na21As33O93,mp-1173826
0.41480000000000006,-1.4568699042709092,Sr2H8O12,mp-1179405
0.0,-0.35959791375000005,Gd1Ho1Tl2,mp-1184533
0.0,-0.3193356508333336,Gd1Lu1Ag2,mp-1184543
0.0,-0.23625951437499992,Pm6Au2,mp-1186500
0.0,-0.7157726018749999,Pm1Eu1Pd2,mp-1186575
0.0,-0.4229521191666672,Tb1Lu1In2,mp-1187340
0.0,-0.3486525462500003,Y10Tl6,mp-1188434
0.0,-1.229023741,Tb7Ru1I12,mp-1188900
0.0,-0.8504056547222226,La10As2Pb6,mp-1189350
1.8114999999999999,-1.646780812274306,Ba4Sm2Ga2Se10,mp-1189376
0.0,-0.3852752477777778,Tb4Ni14,mp-1189379
0.0,-0.8970050149999995,Dy4Ga4Pd8,mp-1189769
3.2469,-2.797847710681819,Sr6Li2Sb2O12,mp-1190151
3.9492000000000003,-1.5611526214116662,Mn4H8Cl8O4,mp-1192289
2.0445,-2.5787835799999996,Sm4Mo4Br4O16,mp-1194049
0.3689,-1.576498940937499,Ba4Pr4Sn8S24,mp-1194578
0.49109999999999987,-1.1685620233928573,Ca32As24,mp-1194887
1.5659999999999998,-2.028963589293163,Ba2H2Pd1S10O34,mp-1195529
2.9007000000000005,-1.9665480515131593,Re4Sb8O26,mp-1196004
0.42799999999999994,-0.9934699899999996,Yb56Al4Sb44,mp-1196138
5.2105,-2.706149429381773,Cs8Li12B12P24Pb8O96,mp-1196318
0.0,-0.0844599731999999,K6Ge34,mp-1196998
4.663600000000001,-3.361607233606321,Rb4Ba4Sc4Si12O36,mp-1197457
0.03270000000000017,-0.30874208037735845,Er12Al86Mo8,mp-1198488
0.0,-0.8164267241666663,Lu20Ge16,mp-1199467
0.0,-0.3482259741666673,Ce1Cd1Ni4,mp-12006
0.0,-0.6020319465624997,Sc12Ga20,mp-1200767
0.0,-0.6559047427777777,Nd20Rh16,mp-1201296
1.399,-1.1350969352033333,Ga14Sb14Te16Cl52,mp-1203106
1.6836999999999998,-1.206062213236346,Ga16Sb14Se16Cl58,mp-1203849
0.20150000000000023,-0.6964727585000001,K4Ba8Cd8Sb12,mp-1205075
0.0,-0.28942902500000045,Er3Mg3Tl3,mp-1205770
0.0,-0.7359939655555563,Er3Bi3Rh3,mp-1205914
0.0,-0.7901739136666663,Sm4In2Au4,mp-1205925
0.0,-0.6610281283333335,Tb3Cd3Au3,mp-1205950
0.0,-0.6379864120000001,Sm4Cd2Rh4,mp-1206219
1.3818000000000001,-1.1686158280316092,Rb2Tl2O2,mp-1206230
0.0,-0.526374553333333,Ca3Ag3Sn3,mp-1206764
0.0,-0.38631003666666713,Dy1Si2Ag2,mp-1206850
0.0,-0.3336907777777777,Gd3Mg3Tl3,mp-1206951
0.0,-0.5045225163333328,Zr4Fe2B4Ru10,mp-1207396
0.0,-0.43747187563063006,Zn20Ge2B16Rh36,mp-1207543
0.0,-0.9251759787500005,Y10Bi2Pt4,mp-1207770
0.0,-1.7679266798495246,Y12B4Cl12,mp-1207798
0.0,-0.4670291191666666,Y16Cd4Pd4,mp-1207818
0.0,-0.216765345754717,Yb12Mn8Al86,mp-1207829
0.0,-0.14466089416666725,Y16Mg4Co4,mp-1207998
0.0,-0.5768499273611111,Tb4Co4B16,mp-1208336
0.0,-0.17773942958333322,Sm16Mg4Ni4,mp-1208976
0.0,-0.8158452092241382,Sm3Si6Pd20,mp-1208981
3.3292,-2.665777880512821,Sm4Hf4Mo14O56,mp-1209249
0.9066999999999998,-1.5330762823645319,Rb8Zr6Be1Br20,mp-1209491
0.0,-1.1945419328571423,Pr12Os4Br12,mp-1209814
4.2238999999999995,-1.6970025413500003,Na6Tb2Br12,mp-1210309
4.1943,-0.421334650598889,Li4H8C4N20,mp-1210974
0.0,-0.38389684390625,Li12Yb34Hg18,mp-1211433
0.0,-0.810940830833333,Li4Tm16Ge16,mp-1211496
0.0,-0.7826885328571426,La12Ga8Rh8,mp-1211591
6.493399999999999,-3.647027409114,K6Tm2F12,mp-1211645
0.0,-0.9200694158424912,Ho6Ni20P13,mp-1212289
2.061,-1.347668890601214,Fe2Ni3H4Se6O20,mp-1212753
0.0,-0.9876008167181467,Er16Ni36P22,mp-1213636
5.1491,-3.1496506071774197,Ba6Tb2B18O36,mp-1214548
0.0,-1.3875196152824998,Zr2C1N1,mp-1215592
0.0,-0.43209001460526286,Zn15B6Rh17,mp-1215838
2.2156999999999996,-3.0823038027500003,Y4Cr2Fe2O12,mp-1216153
0.0,-1.1695687600000007,Tm2Sb1Te1,mp-1216529
0.0,-0.1595003861111124,Ti8Cu3Ni1,mp-1217065
0.0,-0.5212539550000006,Tb1Al1Ni4,mp-1217581
0.0,-0.8657178633333332,Sm2Si3Pd1,mp-1219181
1.5434999999999999,-1.9317252663372735,Mn2Bi3Sb3O14,mp-1221942
2.8238999999999996,-1.3701609530084746,Nd6Pb6I26O80,mp-1222221
0.0,-0.33972946166666773,Lu4Al4Fe4,mp-1222387
2.7822,-2.6077553724729436,Li2In1Fe1P4O14,mp-1222830
3.3315999999999995,-3.610352253359374,La2Zr2Ta6O22,mp-1222999
0.0,-0.9933353018571427,La4Pr1Co10P10,mp-1223424
0.0,-0.3162956431250012,La1Ce1Ni10,mp-1223428
0.0,-0.9572495999310349,K1Zr12Te16,mp-1224116
0.0,-0.3514129239166664,La14Zn45Si1,mp-1224593
0.0,-3.091533524736844,Gd8Sb3O8,mp-1224996
0.0,-0.23394741611111117,Eu1Ga1Ag4,mp-1225134
0.0,-0.3662674737499998,Fe3Co3Si2,mp-1225227
0.0,-1.0045606929365078,Eu2P3Pt4,mp-1225298
0.0,-0.5968311105555557,Ce1B2Ru2Rh1,mp-1226655
0.0,-1.0432228724175816,Ca2Sc1P3Pt7,mp-1227341
0.7236000000000002,-0.20317960641111135,K48Cu48Sn84,mp-1228096
0.0,-2.49186998575,Ba2La1Fe3O9,mp-1228521
1.2151,-2.634530946157408,Ba8Sr4Sm4Co8O30,mp-1228582
0.0,-0.3538658759999997,Al4Cr1Ni15,mp-1228914
0.5514999999999999,-0.40122110820312473,Zn8Cu16Si8Se32,mp-1232332
0.0,-1.593031110607144,K2Yb2Si2S8,mp-12376
2.3574,-2.8955059620833334,Ho4Sb4O16,mp-1238219
0.0,-0.16786253104166646,Sm2Mg4Cu18,mp-13222
1.6995,-3.314804420416666,Y12Re4O32,mp-13627
0.0,-0.26707376615000056,Na8Si8Au24,mp-13673
0.8682000000000003,-0.10871648312624001,Ag16P8Se24,mp-13956
0.0,-1.064380980714286,Pr8Sb6,mp-1484
3.4034000000000004,-1.0667496188070373,Li16Ta2N8O1,mp-14871
0.0,-0.9950699749999989,Lu1Ir1,mp-1529
0.0,-0.3429716549999995,Ge4Pt2,mp-1543
1.0249000000000001,-0.40924117075000005,Na16Ga16As24,mp-15431
0.0,-0.52248796125,Li4Cu2As2,mp-15686
0.0,-0.3189905746153855,Li3Ni18Ge18,mp-15949
0.0,-0.5651995658333334,Nd4B16,mp-1632
3.8750999999999998,-3.6562566372500007,Sr4Tm2Ta2O12,mp-16605
0.0,-0.02453280321428584,Zn13Fe1,mp-1722
0.0,-0.2772597779166676,Nd1Ni5,mp-1824
0.47109999999999985,-0.9122113050000001,Ba12Al4Sb12,mp-18439
2.322799999999999,-0.9370883443750007,Ni2O2,mp-19009
3.5091,-2.8836945326923082,Ba4Mg8V8O32,mp-19084
0.0,-2.6008403464285723,Sr2Fe1O4,mp-19102
3.8301999999999996,-2.400179960480769,Na10Lu2Mo8O32,mp-19464
3.2289,-3.1877002239062513,Ba4Cr4Si16O40,mp-19518
0.0,-0.6682319806249994,Nd2Cu2Sb4,mp-20020
0.0,-0.6826322133333337,Gd1Pb1Au1,mp-20415
0.0,-0.3051696947222222,Sr2In8Ni2,mp-20479
0.010200000000000209,-0.3987836540000004,Yb1Fe2Ge2,mp-20510
0.0,-0.10789786862500028,Na1Pb3,mp-20555
0.0,-0.4740537184999994,Sm1Mn2Ge2,mp-20646
0.006000000000000227,-1.077333150714286,Eu2P2Pd2,mp-20706
0.00280000000000058,-0.35008053909090947,Ce1Sn6Ru4,mp-20752
0.0,-0.299868616875,Ce2Co2C4,mp-20753
1.3966000000000003,-2.488639944285714,Sr4Pb2O8,mp-20944
0.0,-0.31070041958333317,Sc1In1Cu2,mp-21067
2.9272,-1.8942259773437495,Mo2Pb4O10,mp-21138
0.0,-0.2564345933333338,Li2Sn8Ru2,mp-21297
0.0,-0.9274796591666666,Dy4Ge4Ir4,mp-21323
3.3869,-2.72843794902463,K2Rb1Gd1V2O8,mp-21331
0.0,-0.889247326666667,Ca4In2Pt4,mp-21885
0.0,-0.6499842260714281,Mo1P1,mp-219
0.0,-0.6922829266666662,Tb3In3Ir3,mp-22032
0.0,-3.6482665283333326,Ce4Ta4O16,mp-22074
0.0,-1.014021513333334,Tb4Sb4Rh4,mp-22115
0.0,-0.5864670916666667,Yb4Ni4Sn4,mp-22162
0.0,-0.7730139119444441,Sr4In4Pt4,mp-22284
0.0,-0.6370462449999998,Ba1Ge3Pt1,mp-22346
0.0,-0.6620852635000005,Nd1Ge2Ru2,mp-22397
0.0,-0.4307151538888891,Co4B4W4,mp-22759
0.15879999999999983,-2.1813667786949997,Zr2Cl6,mp-22871
0.18910000000000027,-0.9843652630208327,Cr2S2Br2,mp-22998
0.0,-0.3874262366666663,Tb2Zn4,mp-2338
4.0576,-1.8060545489599997,Sr2H2Cl2,mp-23860
3.7974,-0.25358184155999997,Na1H1,mp-23870
2.6372999999999998,-2.239487725520833,Nd4S4Br4,mp-27180
4.3499,-3.0022900622416677,Nb2Sb2F20,mp-27472
2.7708,-1.551490835618616,Cs2Se1Cl6,mp-27830
0.5613000000000001,-1.858762060768889,Ti2N2Cl2,mp-27850
0.0,-0.2773879161363624,Tb6Mn4C12,mp-28827
3.8287999999999998,-2.5031337390535726,Ge2P4O14,mp-28883
0.0,-0.6678386778611112,Na1Cu4S4,mp-29069
0.013199999999999878,-0.47234585412666674,Ba6Cu6N6,mp-29199
3.2237999999999998,-1.219259926861264,P8S12O6,mp-29204
0.0,-3.090018278333334,La3Re2O10,mp-29326
1.0589,-0.09388045248958339,Cu6Se18I6,mp-29450
0.0,-0.8689914585714282,Y2Cu2P4,mp-30208
2.9404999999999997,-0.6549771464285714,Tl4Zn2I8,mp-30532
0.0,-0.7171369925000004,Ho10Sn6,mp-30735
0.0,-0.8056766500000005,Y1Ir1,mp-30746
0.0,-0.7222531472916671,Zr12Ge24Rh12,mp-31084
0.0,-0.45244988416666754,Ti1Al1Fe2,mp-31187
0.0,-0.6180743110000002,Pr1Si2Au2,mp-31202
1.2875999999999999,-1.0986306626185711,Sr10Mo4N14,mp-31231
0.0,-0.3735753194444437,Sc4In2,mp-31348
1.4259999999999997,-1.8916781929062503,Pr16Se24,mp-32689
3.7311,-1.87758194175,Na8As8O16,mp-3468
0.0,-0.7164147233333331,Ce1Ga3Pd2,mp-3494
4.8226,-3.3071997523484855,Ca6B4O12,mp-3575
0.0,-0.3443009593749995,Dy1Co1C2,mp-3847
0.0,-0.5779504509999995,Pr1Co2Ge2,mp-4810
0.0,-0.5546744215151501,Y4B28Mo12,mp-504874
1.9198999999999997,-1.6657115095333335,K8Na12In4O16,mp-504962
0.07640000000000002,-2.3858301699639886,Rb4Ce4H8S8O36,mp-504990
2.1715999999999998,-1.409203131998024,Cs2Tm2Zn2Se6,mp-505713
1.0322999999999998,-1.2050386529886365,K8Tc12S24,mp-541353
2.7147,-1.4024091465982143,K12Ga4S12,mp-541686
0.0,-0.23144646132183913,Cs18As6,mp-542220
0.0,-2.4288670326973687,La18Sb10O10,mp-542503
0.0,-0.22896910502777748,Na12In8Au4,mp-542680
1.5467999999999993,-2.209470486210938,La2Cu2Se2O2,mp-552488
3.3552,-2.9832878261139997,K3Mo1F6,mp-553896
0.0,-1.0135742760156248,Cu4Se4O16,mp-554040
3.7890000000000006,-1.7166718125000007,Ge2Te4O12,mp-554142
0.0,-3.117014566775334,Tm6Mn6O18,mp-554211
0.0,-2.186148316931819,Ca4Ru4O14,mp-554638
1.5234000000000005,-3.305359151750001,Tb4V4O12,mp-554811
5.1502,-3.5991295313042855,Pr6Si4Cl2O16,mp-554826
0.0,-1.3209025928055564,Na2Zr1Cu2S4,mp-556536
2.9928,-2.468861761350625,Gd4Se4Cl4O12,mp-556551
2.1856999999999998,-1.9584192763000003,Na12Fe8As12O48,mp-556723
0.0,-2.621267700128205,Sr22Os8O48,mp-556809
2.9569,-3.846513920677083,Gd8Ti4O20,mp-557626
3.3861,-2.822422470135128,Ca8Si12Pb12Cl4O42,mp-558268
0.0,-2.25136935875,Ba4Bi4O12,mp-559051
0.0,-2.728492750681818,Sr6Ca2Ir2O12,mp-559635
2.6721,-2.983182619610804,Rb4V4O4F12,mp-559739
2.848,-3.746660779431819,La12Nb4O28,mp-560349
1.9429000000000003,-2.7364485802645495,V12B6P18O72,mp-560575
1.6581000000000001,-3.1728548457142858,Li1La4Au1O8,mp-560605
0.0,-3.1672630819053795,Cs4Na2V2F12,mp-561500
3.1255,-1.5142722941987181,La6I18O54,mp-566599
1.9371,-0.11425009633333331,Mg4Si8B48,mp-567224
0.0,-1.022600981,Pr1Si2Pt2,mp-567338
1.8103999999999996,-1.247783798273333,La8Ga4N12,mp-568036
0.048799999999999955,-0.474465354754902,Ho16Ni80B40,mp-568440
0.0,-0.18367493684210506,Na40Ga24Sn12,mp-568580
0.0,-0.9527166402272733,La3Si4Pd4,mp-568625
0.0,-0.3810573403333336,In14Pd6,mp-568655
0.0,-0.8852136094444442,Yb6Ge6Pd6,mp-568724
1.3685999999999998,-0.43013132333333326,Hg36Bi8As16Br48,mp-568804
0.0,-0.6933814533333331,Tm1In1Au2,mp-568830
0.0,-0.9076574500000006,Gd1Si2Ru2,mp-569302
0.0,-0.6625576844759997,Ba4Ga2Ge2N2,mp-570245
0.0,-0.45222310499999924,Ca2Ir4,mp-570436
0.0,-0.9103067322222221,Yb20Au16,mp-570527
0.9463999999999999,-0.2083360070833334,Sn4Hg28As16I24,mp-571478
0.0,-0.23312864524999952,La14Ni6,mp-573855
0.0,-0.19614800595588253,La46Mg8Ni14,mp-581781
0.0,-0.2906766813636365,Y10Ga2Co10,mp-582751
0.0,-1.1678983907792209,Zr14P8,mp-583740
0.0,-0.5115641338888892,Ce1B2Ru3,mp-5940
0.0,-1.0089890466666678,Y3B3Pt6,mp-5971
0.0,-0.37526121842105387,Y12Ni6Pb1,mp-600480
0.0,-0.04504455250000028,Fe3Co1,mp-601820
2.2731,-0.9112379374233717,Cs4In4I16,mp-607987
0.0,-0.8078467227083337,Ti1C1,mp-631
0.0,-0.18654802956521713,Y2Zn40Ru4,mp-640315
0.0,-0.5283565999999998,Dy10Ni2Pb6,mp-640372
1.2953000000000001,-1.5277135475719044,Ta6In4Cl18,mp-662572
0.0,-0.6343256980000007,Eu1Co2Si2,mp-672294
0.0,-0.14450697833333473,Zr2W4,mp-675
1.9593000000000003,-1.6381060732916217,As4Pb28Cl8O34,mp-680722
0.0,-0.48076145803571435,Zr12Zn12C4,mp-703492
2.7847999999999997,-3.632140198157895,Gd6W1O12,mp-753421
2.1212999999999997,-1.9277214761566093,Rb4Sn2O6,mp-753798
0.0,-2.110507248571428,Tm2Cu4O8,mp-754220
0.0,-0.734649251111112,Er6Te2Ru1,mp-754673
3.2297000000000002,-2.0633064354375,Na6As2O8,mp-756044
0.0,-1.4920686056250005,Sr2Pd6O8,mp-7561
1.8307,-1.3719148821243843,Cs12Tl4O12,mp-756122
4.0092,-4.029533522062501,Y13Ho19O48,mp-758033
0.0,-3.380192645958333,Na4Ti20O40,mp-760024
1.7921,-2.054547292142858,Ga4Co2O8,mp-765466
0.49490000000000034,-0.404540836666668,As4Ru2,mp-766
2.8701000000000003,-3.5318462937499997,Gd2Ta6O18,mp-770998
0.0,-1.1509073415476199,Zr4Co4P4,mp-8418
0.0,-0.9366256575000005,Er1Pd1,mp-851
0.0,-0.42931816749999996,Li1Pm2Ge1,mp-861955
0.0,-0.6697590924999997,Li1Al1Rh2,mp-862297
0.0,-0.8176154649999994,Sc2Ru1Rh1,mp-862372
0.0,-0.24357568916666583,Sc2Tc1Ag1,mp-862379
0.0,-0.4507719124999996,Ga2Pt6,mp-862621
0.0,-0.6769137468749999,Li1Pm1Au2,mp-862926