band_gap,formation_energy_per_atom,full_formula,task_id
0.0,-0.2301607444736841,Dy2Zn17,mp-30964
4.8812999999999995,-1.1161133988925007,Nd2Cl6O24,mp-31067
0.0,-0.4393502721666671,Nd1Si2Ag2,mp-31204
0.0,-0.5234432729999999,Ca6Bi16Pd8,mp-31278
0.0,-0.46328411,Ni2Ge2Pd2,mp-3274
0.0,-0.08974693250000006,Sm2Co4,mp-336
1.6090999999999998,-0.14441880673958263,Na2Al2B28,mp-34763
0.0,-0.8161440963333334,Ho1B1Rh3,mp-3710
6.3332,-0.41995236260777763,Na2B2H8,mp-38725
0.0,-0.8754342650000003,Ca2As2Au2,mp-3927
0.0,-0.5990900605,Y4Al12Ni4,mp-4054
0.6579999999999995,-1.327169052031251,Li1Cr1S2,mp-4226
0.0,-0.4135263737499999,Dy8Al8,mp-433
0.0,-0.6271384819999994,Dy1Mn2Si2,mp-4985
0.0,-1.2187821240298333,Cu6Bi2Se4Cl2O16,mp-505104
1.8727999999999998,-1.9318782841466664,Gd8Br12N4,mp-505435
2.3884,-1.8731824496767242,Cs2Sb2O4,mp-510273
0.0,-0.7359609391666678,Ho4Co4Si4,mp-510688
0.0,-0.6698987549999996,Dy2Si2Cu2,mp-5365
1.3403,-1.139057708877904,Rb8Re12S26,mp-541057
5.1175,-3.163683426522056,Cs4Y4P8O28,mp-541412
0.0,-2.394115194771251,Eu4Mn8O20,mp-542392
0.0,-0.3956498041666672,Ti1Al3,mp-542915
0.0,-0.9197110933928576,Ti12O2,mp-554098
1.6333999999999997,-2.2678574352187497,Na1V1S2O8,mp-554124
0.0,-1.25595142721591,Ta6Bi4S12,mp-554389
3.1287,-3.460563967136154,Sm2Ta2Cl2O7,mp-554623
2.6211,-2.861144934114,K3W1F6,mp-555403
4.4403999999999995,-3.5902969714634834,Rb2Zr2Mn2F14,mp-555669
1.8401999999999998,-2.5576505175250004,Pr40S56O4,mp-556056
1.9083,-2.828284176785715,Ca2V4P4O20,mp-556243
3.9703,-2.0099071869927276,Te4As4Cl12F24,mp-556325
5.4112,-3.0067897618981476,Li4Al4B8O20,mp-557104
2.1998999999999995,-1.8130105850245455,Mo2Pb6Cl4O10,mp-557563
1.6190000000000002,-2.229016717321071,Gd8Au20F84,mp-557726
1.7969,-2.6420346419311116,V8Ge4O16F8,mp-558123
5.3008999999999995,-2.8258683319166673,K8Na4B36O60,mp-558293
2.1275,-1.8363460113362073,Rb16Fe16O32,mp-558337
3.1258000000000004,-1.8921637597656247,Mg4Se4O16,mp-560670
2.8457,-1.8296041464224138,Cs4Sm4Si4S16,mp-561635
0.0,-1.0210422855952384,Ce4P8,mp-568080
0.0,-0.7843373096428569,Tb4Ge6Pt18,mp-568456
0.0,-0.3476051541666667,Tm1In1Ag2,mp-569440
3.1083999999999996,-1.0819956233580001,Te8Cl32,mp-569561
0.48210000000000086,-0.5460414258333325,Si16Ru8,mp-569815
0.0,-0.7639441423333337,Sc1B1Rh3,mp-569875
0.0,-0.1381085141666666,Sr2Cd22,mp-569954
0.0,-0.01611107333333332,Li8Ca4,mp-570466
0.5162000000000004,-0.9647244479166669,Hf3Tl2Cu2Se8,mp-570700
0.0,-0.5384429266666668,Sr1Pt5,mp-570832
0.0,-0.06199434066666676,K1In9Co2,mp-571263
0.0,-2.0931913331250005,Sr2Cu2O4,mp-5787
0.0,-3.2316827731944437,Eu12Be4O20,mp-579259
0.0,-0.3917309179166679,Ce6Ni18,mp-580354
0.0,-0.3009532912499999,Co4As4,mp-583
0.0,-0.47284920199999975,Yb1Si2Cu2,mp-5934
0.0,-0.46528955875000005,Al4Pd20,mp-605663
0.0,-2.9699549615000023,Eu4Br2O4,mp-605786
0.0,-0.7520135133333335,Y3In3Au3,mp-621176
0.0,-0.7035464959539477,Nb4Co2Pd1Se12,mp-624253
0.0,-0.49490007312499884,Ce1Cr2Si2C1,mp-6258
0.8807999999999998,-1.7490667291399997,La16Te12N8,mp-641010
0.0,-0.48397150830357155,Ni6Bi4S4,mp-642190
0.0,-0.3707582633333328,Tb3Ga6Co9,mp-644529
6.1363,-3.099012471955379,Cs2Li1Ga1F6,mp-6654
2.9374000000000002,-1.4686984929760118,Cs14Cd6Br26,mp-667295
5.2445,-3.0127383990973335,K2Na1In1F6,mp-6686
2.864,-1.3865165191116073,Ta2P4N2Cl24,mp-669508
0.0,-0.43190830791666723,Tb2In4Ni2,mp-672325
0.0,-0.5904395146551725,Zr6Ni16Ge7,mp-672651
1.7147000000000001,-1.2981383580295338,Sb4H40Cl24O18,mp-696088
4.1415,-1.757700226479655,Cs2Li4H6O6,mp-697181
1.7915999999999999,-1.4319640730949998,Hg2F2,mp-706
0.0,-0.4194412319999998,Tb1Al2Ge2,mp-7157
2.4273000000000002,-1.2347533844635714,K16Ge4H16N8O12,mp-720197
0.0,-0.5537625577500002,Ce6Sn26Rh8,mp-7203
3.5643000000000002,-1.6549401190724993,Ca8H32N8Cl8O40,mp-720586
0.0,-0.4753072787499996,Hf12Zn12C4,mp-722912
5.3375,-3.064137579394866,Cs2Sn1F6,mp-7297
0.0,-0.49333335124999955,Sm12Ir4,mp-7342
5.4414,-3.581245820916666,Ho6B6O18,mp-752713
0.0,-2.6018947904104754,Mn2V3Fe1P6O24,mp-758220
1.0064000000000002,-1.8843561410028562,Hf12N16,mp-776470
4.567900000000001,-2.2229651511904756,As4P4O16,mp-8140
0.0,-0.3376627008333332,Er1Ni5,mp-853
0.0,-0.2857175974999999,Ca2Mg1Tl1,mp-861645
0.0,-0.3304335812499999,Ho1Mg1Zn2,mp-861981
0.0,-0.33414469083333387,Ti2Mn1Fe1,mp-861983
0.0,-0.5512487287500001,Ce2Ga6,mp-862696
0.0,-0.32559824874999954,Pr1Mg1Zn2,mp-862759
0.0,-0.6607087893750005,Pm2Au6,mp-862985
0.0,-0.36133296187499964,Ca1Sm1Cd2,mp-864620
5.611800000000001,-2.701011191219062,Na2Mg2S2O8F2,mp-864766
0.04260000000000019,-0.764183754166667,Mg1Ti1Ir2,mp-864908
0.0,-0.5695763661111108,Gd4Ni4B16,mp-865177
0.0,-0.77719527,Tm1Mg1Rh2,mp-865230
0.0,-0.4038868124999997,Tm2Cu1Ru1,mp-865319
0.0,-0.31626603312499846,V2Re1Os1,mp-865497
0.0,-0.07329095999999957,Y4Mg2,mp-865583
0.0,-0.5780590129166665,Yb2Ag1Ge1,mp-865630
0.0,-0.5083515262500002,Li2Yb1Sn1,mp-866192
0.0,-0.5114234400000003,Gd4Ga16Co3,mp-866687
0.0,-0.3006741562500004,Be1Si1Os2,mp-867107
0.0,-0.6077067362499999,Er2Os1Pd1,mp-867213
0.0,-0.2829691289583329,La1Cd1Ag2,mp-867225
0.0,-0.7042472396666681,Ce2B4Ir4,mp-8680
0.0,-0.8677755893253981,Dy5P12Ru19,mp-8760
1.6363,-0.9394076656718755,K4Nb2Cu2Se8,mp-9003
0.013099999999999667,-0.7038923212499993,Tm2Fe2Si2C1,mp-9211
0.0,-0.26108136821428574,Hf18As2W8,mp-973675
0.0,-0.6426144223611109,Ho4B16Ru4,mp-974392
3.5796,-1.8714094299020005,Re4Cl4O12,mp-974724
0.0,-0.360866684166667,Pr2Ag1Hg1,mp-975788
0.0,-0.3081732220833331,Cd1In1Rh2,mp-977367
0.0,-0.3591247150000001,Zr1Nb1Tc2,mp-977534
0.0,-0.467194175625,Sm1Tm1Hg2,mp-978529
0.0,-0.2509078517816093,Rb2Hg4,mp-9827
0.0,-1.3490419581129998,Ca6Sn2N1O1,mp-989584
0.0,-0.8306487074279986,La4Tc4N12,mp-989619
1.029,-1.0173769111278737,Rb2Ag2O4,mp-997052
2.2790999999999997,-2.17347792315625,Na1Tb1S2,mp-999126
2.0406,-3.1253270129928574,Ca2Co2F10,mvc-14161
2.3963,-2.627160718375001,Ca12Ge12Mo8O48,mvc-4467
1.2536999999999994,-1.8112217170312501,Lu1Tl1S2,mp-1001604
0.0,-0.7526123087499998,La2Rh2,mp-1002107
0.0,-2.4669548324375015,Ce2Y6S12,mp-1006324
0.0,-1.4414252078566652,Ce2Mn1N3,mp-10068
0.0,-0.9666386914759997,Hf6Zn2N2,mp-1014252
0.0,-0.08522887447600028,Cu1Ni3N1,mp-1017556
0.0,-0.8093780737500005,La2Sn2,mp-1018047
0.0,-1.5848078110714283,Lu1P1,mp-10192
0.0,-0.400919881388889,Er1In1Ni4,mp-1024983
4.961200000000001,-2.2562213119613794,Rb2Mg1Cl4,mp-1025227
0.0,-0.4522087688095238,Pr1In5Rh1,mp-1025283
0.0,-0.6363952599999996,Ga4Pt4,mp-1025551
0.0,-1.1114161915000011,Sm2Si4Pt4,mp-10298
1.6254999999999997,-2.09460173405,K2Ba2Bi2Te2O12,mp-1040443
0.0,-0.8314967029999991,Ce1Si3Ir1,mp-1068906
0.0,-0.7996734234722217,Nd1In1Pt4,mp-1071890
0.0,-0.30803832458333363,Sm1Cd1Ni4,mp-1072586
0.0,-0.5590072766666664,Tb2Si4,mp-1077398
0.0,-3.0627520857142847,La2Cu1O4,mp-1077929
0.0,-0.47444276750000036,Sm3In3Ni3,mp-1078856
0.0,-1.0968420588571433,Pr2P4Rh4,mp-1079288
0.0,-0.8772571684999996,La2Al4Pd4,mp-1079764
0.0,-0.7386935300000005,Y4Cd2Ge4,mp-1079785
3.7163,-1.9601010001473793,Cs2Na1Bi1Cl6,mp-1080041
0.0,-0.6165655609999995,Sr2Ga6Pd2,mp-1080133
0.0,-0.3425850176302087,Hg2Pt4Se6,mp-1102023
0.0,-0.3233355822222226,Eu2In8Ni2,mp-1103002
0.0,-0.2882956674999993,Tb8Al4,mp-1103391
0.0,-0.2883710099999993,Lu1Al8Cu4,mp-1103511
0.0,-0.24626876230769312,Lu1B12,mp-1104289
3.3296,-2.217676571784211,Hg1As2H2F14,mp-1105456
0.07769999999999921,-0.616353822500001,Tm4Ge10Ru6,mp-1106240
1.4529999999999998,-1.301630575748024,Cs2La2Hg2Se6,mp-11124
4.2395,-1.862518857791379,Cs2K1Nd1Br6,mp-1112758
2.726,-2.7187469246220464,Cs2Ga1Ag1F6,mp-1113583
0.0,-2.2327688958925003,Li1Ir1F6,mp-11172
0.0,-0.4073014540000003,Ga3Ni2,mp-11397
0.6149000000000004,-2.6349384996666676,Sr24Fe12Mo12O72,mp-1173284
2.4120999999999997,-1.9771695038766666,Na1Mn2Mo2H3O10,mp-1173541
0.0,-0.8364270209090905,Lu7Te2Pd2,mp-11753
1.2698,-1.6820191818749999,Fe2O2,mp-1178232
0.0,-0.19124958333333364,B1Ir1,mp-1183252
0.0,-0.93485584,Eu2Sb1Au1,mp-1184372
0.0,-0.5802523537499997,Ho1Rh2Pb1,mp-1184821
0.0,-0.19752169249999962,Mn1Pd2Au1,mp-1185995
0.0,-0.6211078578973215,Na2Mo6Se6,mp-1186069
0.0,-0.4527831187500002,Pm2Al1Ga1,mp-1186435
0.0,-0.24301930187500043,Pm1Mg1Tl2,mp-1186609
0.0,-0.09306135812500038,Re3Ir1,mp-1186902
0.0,-0.4588191343749983,Ta2Re1Tc1,mp-1187212
0.0,-0.3566885900000001,Y1Tm1Ru2,mp-1187865
0.0,-0.003896834999999932,Y2Tm6,mp-1187880
0.0,-0.49053087875000045,Zr2Tc1Os1,mp-1188002
0.0,-0.5355688700000005,Zr2Tc1Ru1,mp-1188003
0.061499999999999666,-0.9615290488888886,Eu6Al4As8,mp-1189098
0.0,-1.6530531147058825,Tb6Ir1Br10,mp-1189524
0.0,-0.3876798947058822,Ce1Ge12Pt4,mp-1190040
0.0,-0.5302715594117645,Lu4Ga12Pd1,mp-1190231
0.0,-0.7956080799999997,Ho12Ni4Ge8,mp-1190282
0.0,-0.08820289755681833,Ho2Fe17C3,mp-1190608
0.0,-0.5825189110606072,Tb6Mn2B14,mp-1190660
0.0,-1.1288781327489181,Ti14P8,mp-1191079
0.0,-0.30735883409090936,Ga18Ir4,mp-1191262
0.0,-0.6150953454545448,Gd6Si4Ni12,mp-1192140
0.0,-1.6260576045512822,Ti2Nb8S16,mp-1192454
0.0,-0.6374994443103454,Sc6Co16Si7,mp-1192939
1.0352000000000001,-0.8189731167949513,Rb8Mo4Se16,mp-1193232
2.6888,-3.6330628941206253,Nd12Se6O6F12,mp-1194517
0.0,-0.24359199583333305,Sr4In32Ir8,mp-1194987
0.0,-0.6326877138888878,Ta12B12Ru12,mp-1195237
0.0,-0.6990949582500001,Tm8Fe12Si20,mp-1196684
0.0,-0.38649451333333373,Sc8Ni28,mp-1197416
0.047900000000000276,-0.31145419492957765,Ho26Zn116,mp-1197586
4.0405,-1.468970496713791,Mg2Tl4H24Se4O28,mp-1197665
0.0,-0.8937575478378375,Pr6Si22Pt46,mp-1198014
4.803100000000001,-2.9566223017751856,Ba8B20H4O40,mp-1198110
0.0,-0.5419257649999999,Er24Ga16,mp-1198546
0.0,-0.512205498684211,Yb10Ni8Sn20,mp-1198689
0.0,-0.8670378680753983,Ho5P12Ru19,mp-1199917
0.40920000000000023,-1.4163347190000004,Ho32Ru8Br40,mp-1200540
0.0,-0.27195309019999997,Pr6Zn44,mp-1200700
3.1151999999999997,-2.017365674818831,Cs4V4Se4O20,mp-1201217
0.0,-0.3332368732499994,Ho6Ge26Os8,mp-1202254
4.4155999999999995,-3.334869401773544,Rb4Ti8H6F42,mp-1203838
0.0033000000000003027,-0.46732441071078434,Dy16Ni80B40,mp-1204635
0.0,-0.4651273268749998,La4Zn10Sn2,mp-1205365
0.0,-2.5431657732500006,Ba6Y2Ir4O18,mp-1205382
0.0,-0.5209347447499993,Tb2Fe4Si2C2,mp-1205543
0.0,-0.6007298550000002,Ho4Co4I2,mp-1205546
0.0,-0.5673214433333335,Zr6Co1Sb2,mp-1205892
0.0,-2.2485713242500003,Ba2Cd1Os1O6,mp-1206134
0.0,-0.6624976312499999,Sc1Pd2Pb1,mp-1206369
0.0,-0.9031120179999995,Sm4Ge4Rh2,mp-1206581
0.0,-0.8125941711979164,Hf4Se2,mp-1206927
0.0,-0.5818101922222227,Zr6Ni1Sb2,mp-1206964
0.0,-1.0040001016666658,Tm1Bi1Pt1,mp-1207057
0.0,-0.6026761927500004,Gd3Sn1C1,mp-1207074
0.0,-1.9343327766944067,Rb2V1Cl6,mp-1207222
0.0,-0.6761644126388902,Zr10Sn6C2,mp-1207413
1.0809000000000002,-0.9975319800000003,Zr12Si2I28,mp-1207498
0.0,-0.7539956599999995,Yb4Al18Ir6,mp-1207613
0.0,-0.9112799712499999,Y4Ge4Pd8,mp-1207627
0.0,-0.29851320653846086,Yb6Al60Re12,mp-1207715
5.8101,-4.126761480135714,Y12Tl4F40,mp-1207844
1.9586000000000001,-0.20813305333333354,W12I24,mp-1207889
0.0,-0.8274408170000006,Tb6Sb8Pd16,mp-1208491
0.0,-0.9288139499999996,Tb12Ge8Rh8,mp-1208569
0.0,-0.2686904125000006,Tb12Co5Bi1,mp-1208573
0.0,-0.6866334592261906,Ta22Si4Se16,mp-1208587
5.036700000000001,-3.1798216625800504,Rb4Tm4P8O28,mp-1209196
5.1545,-0.29591665747080437,Rb4Al4H16,mp-1209241
0.0,-0.3308822933333335,Pr16Mg4Rh4,mp-1209444
0.0,-0.19412986566176554,Sm46Mg8Ni14,mp-1209695
3.844,-3.1467657384182335,Rb12La12B16O48,mp-1209773
0.0,-0.8320893146428564,Pr4Al18Ir6,mp-1209795
0.0,-0.9372077787499992,Nd2Si4Ir6,mp-1209840
3.5080999999999998,-3.1169019238292313,Nd6W2Cl6O12,mp-1209888
0.0,-0.38027997102941125,Nd1Fe4As12,mp-1209892
0.1623000000000001,-1.454557484773707,Rb8Ce4I20,mp-1210060
4.0181000000000004,-3.2897695611209086,Na4Mg2Cr2F14,mp-1210432
0.0,-0.4817759288095247,Li5Ni9As7,mp-1211146
3.1525999999999996,-2.7642862451249997,Li12Sm12Te8O48,mp-1211256
0.0,-0.3673173579166675,La16Mg4Rh4,mp-1211476
0.0,-2.3927676743,K2Eu2C4O12,mp-1211491
6.980700000000001,-4.320172958564286,K2Dy6F20,mp-1211612
0.0,-0.8334767369999999,Ho6Sb8Pd16,mp-1212316
0.0,-0.15015116708333368,Dy16Mg4Co4,mp-1212913