band_gap,formation_energy_per_atom,full_formula,task_id
0.0,-2.825959811704546,Ca3Pr2Sb3O14,mp-1214039
0.0,-2.69172655825,Ca4Yb2Ru2O12,mp-1214109
5.2881,-3.0576720426672535,Ca8B20Cl4O36,mp-1214176
0.0,-0.20782237594339634,Ca12Al86W8,mp-1214183
0.0,-2.4094299466911764,Ba8Ho2Cu6O18,mp-1214501
3.3123,-3.5376393295,Ba4Sm2Ta2O12,mp-1214622
0.0,-2.568413644583333,Ba12Ce3Ru9O36,mp-1214942
7.3107999999999995,-4.447780356320001,Ba8Lu16F64,mp-1214962
0.0,-0.6621486188571432,Yb1Mn1Cu1P2,mp-1215514
0.0,-0.7049928078571425,Y2As7Rh12,mp-1216186
0.0,-0.2249223924999999,Sr2Ca2Zn4,mp-1218336
0.0,-0.4664439287500004,Sn2Pd3Pt3,mp-1218977
0.0,-0.4918795044999996,Sm1Ga3Cu1,mp-1219014
0.0,-2.3472333810937505,Sm3Ho1S4,mp-1219190
0.0,-0.33291546416666645,Sm2Al1Ag3,mp-1219227
0.0,-0.31737581519230673,Sc2Mn12Ga1Ge11,mp-1219700
0.0,-0.22757683000000029,Mn1Ga2Ni9,mp-1222110
0.0,-0.4204743479166666,La1Ga1Ni4,mp-1222941
0.0,-0.3365485320833332,La2Al3Cu7,mp-1223301
0.0,-0.5675936785714288,Fe3Ni1P4,mp-1224771
0.0,-0.7451896587500012,Co2Cu2Ni2S8,mp-1226116
0.0,-0.9269971499999995,Ce2Si2Ni1Pt1,mp-1226865
0.0,-0.5768993650000004,Ba1Si1Au1,mp-1227729
2.3915,-2.6979182252380958,Ba4In1Sb1O8,mp-1228129
3.6754,-3.605667153920001,Ba2Sc1O3F1,mp-1228342
0.0,-2.616054100250001,Ba6Er2Ir2Ru2O18,mp-1228390
0.0,-2.173940803149655,Cs2Cu2Rh2F12,mp-1228942
0.0,-0.8888231805555549,Ce3Sn3Rh3,mp-12374
0.0,-0.4516929016666668,Sr2Ni6Ge4,mp-12521
0.0,-0.19485798178571404,Tb2Be26,mp-12615
0.0,-0.8819903474999998,Tb4Al4Pd4,mp-12722
3.4259,-2.787227165104168,Ba1Al2Sb2O7,mp-12885
0.0,-0.7209105674999998,Yb4Zn4Au4,mp-13027
0.09089999999999954,-0.9238339762500005,Sc1Tl1Te2,mp-13314
0.0,-0.21338657250000015,Fe1Ni1Pt2,mp-13463
1.3184999999999998,-3.3533097692187495,Gd2Se1O2,mp-13973
0.0,-0.6324038775000007,Ba2As6,mp-15325
0.0,-0.8998231850000007,Zr1Te1,mp-1539
1.3504999999999998,-1.131694564212963,Sr32Ti8As32,mp-15501
0.0,-2.7801582182500004,Ba4Y2Ir2O12,mp-15888
0.0,-0.5002219874999998,Lu4Al6Co2,mp-16490
0.0,-0.6440146462499996,Ho2Al4Ni2,mp-16503
0.0,-1.7290978491785722,K6Na2Ru4O16,mp-17902
2.6719,-2.5469128839583335,Ba8Zn4O12,mp-17911
4.052899999999999,-2.804251081190476,Li6Ga6Si6O24,mp-18147
3.7543000000000006,-2.2429118860204076,Tl4Zn4P4O16,mp-18168
0.0,-0.23379742500000056,Tb1Cu1,mp-1837
3.3084999999999996,-2.777297108461539,Mg6V4O16,mp-19034
3.0723999999999996,-2.908967553685066,Ba2Cr2P4O14,mp-19110
4.0066999999999995,-2.4215779089123384,Ca2Ni6P8O28,mp-19473
0.0,-0.5045075362500002,V4As4,mp-19940
2.645,-2.5480151301136362,La4Fe4Ge8O28,mp-19980
1.0211999999999999,-1.589778440130208,Ba2Gd2Cu2Se6,mp-20157
0.0,-0.8160680300000003,Y4Si4Ni4,mp-20557
0.0,-0.4570566533333332,Eu1Hg2,mp-20719
0.0,-0.6896735819999996,Dy1Ni2Ge2,mp-21415
0.0,-0.456753106,Dy1Fe2Ge2,mp-21426
0.0,-0.6814888827377783,Sr12Ni12N12,mp-21524
0.0,-0.553554128333334,Eu2Ga4,mp-22317
0.008000000000000007,-2.2804601808055556,Ba6In2Ru4O18,mp-22352
0.010899999999999466,-0.9404989045833343,Gd2In2Pt4,mp-22656
0.0051000000000005485,-0.9222992720454545,La3Ge4Pd4,mp-22729
2.4146,-1.8615320133333337,Bi2Sb2O8,mp-23018
1.039,0.0,I4,mp-23153
1.8233000000000001,-1.1400347043833332,Sb2Cl10,mp-23176
3.8701,-2.5634140949449997,Sc2Cl6,mp-23309
2.0637999999999996,-0.46203508999999926,Cu8W24Br56,mp-23370
2.389,-1.1889311605,K2I2O8,mp-23562
0.0,-1.5777550798214293,La1P1,mp-2384
0.0,-0.2731750341666661,As2Pd10,mp-2512
0.0,-0.5641570750000002,Yb1Pb1,mp-2673
3.4583999999999997,-1.9268395606876685,Cs6In4Cl18,mp-27172
4.999700000000001,-2.6163364473954633,B4S4F28,mp-27349
2.3747,-1.8041810855686207,Cs3Sb2Cl9,mp-27629
2.7178999999999998,-3.446303573385417,Mg2Ti4O10,mp-28232
2.4463,-2.5167335778733335,La8H8O8,mp-28255
2.9371,-1.1022628884999999,Li4Ga4Br12,mp-28327
0.0,-0.2163872061111114,B4Os2,mp-2850
0.0,-0.4380716952333337,Na2B2Pt6,mp-28614
0.0,-0.5190772240000001,Yb1Fe2Si2,mp-2866
0.1829000000000005,-0.9492942654166671,Ca16As16Pd16,mp-28763
2.703,-3.021157518295455,Sm4Sn4O14,mp-2883
2.587,-2.9972831625,Ti12Zn8O32,mp-29104
0.0,-0.48253284399999996,Ba4Mg8Sn8,mp-29622
2.3423999999999996,-2.0365266658653853,Bi8W8O36,mp-29782
1.984,-1.9650343212755799,Cs12Cl8O2,mp-29983
0.0,-0.9231719896428571,Sm6Si4Ir4,mp-29989
0.0,-0.4319792066666667,K5Sb4,mp-30021
0.0,-0.3251395620833333,Sr8Ag8,mp-30355
0.0,-0.07010786999999996,Mg6Cd2,mp-30490
0.7977999999999996,-0.829026643888889,Ti1Sn1Pt1,mp-30847
2.5259,-1.185381569761482,Ba12B8N16,mp-30905
0.0,-1.0023399512499997,Ce2Si2Rh4,mp-31078
0.0,-0.2629565451034484,Rb3Au7,mp-31144
0.9677000000000002,-0.38593879691220206,P8Pd8Se8,mp-3123
0.005799999999999805,-0.4426778438888882,Ga12Ir6,mp-31253
0.0,-0.9300915250000003,Er1Si2Pd2,mp-3218
0.9995000000000003,-1.6109670837500005,La16Te24,mp-32755
0.0,-0.8098273666666671,Hf1Te2,mp-32887
0.0,-1.5268496193749996,Ca2Pd6O8,mp-3315
0.0,-0.6070829279999999,Sc4Ni4Sn2,mp-3363
0.0,-0.3643133662500002,Fe1Si1Ru2,mp-3464
1.5972999999999997,-2.2173497302083334,Li4Mo2O6,mp-35975
0.0,-0.7763693590000003,Sc4Fe2Si4,mp-3618
0.0,-0.7352283783333332,Ho3In3Au3,mp-3630
7.8271,-4.058965360793334,Li2Y2F8,mp-3700
2.6175,-3.086707944150001,Na4Ta4O12,mp-3858
0.0,-0.23584490125000013,Er1Pb3,mp-388
0.0,-2.0188119424171425,Mn4Fe2O8,mp-38856
3.3352999999999997,-2.9271235906594204,Na6Al6Si6Ag2Br2O24,mp-43068
0.0,-0.814939962857143,Ba1Fe2P2,mp-4883
0.0,-0.5426887047222225,Sc1Co3B2,mp-4938
1.9809,-3.175174274659092,Ti6Pb2O14,mp-504427
0.002100000000000435,-3.384609270859375,Ce12S8O12,mp-510277
0.0,-0.6807452803333348,Pr1B1Rh3,mp-5200
0.0,-0.5456079359999997,Lu1Si2Cu2,mp-5346
0.0,-2.7162304107553794,Cs2K1Co1F6,mp-540729
2.8525,-3.687474664795715,Zr6Pb2O8F12,mp-541097
0.01540000000000008,-1.1329903214473682,Sc12C4I22,mp-541102
0.0,-0.9299794547058824,Sc4Ge6Rh7,mp-541558
2.9680999999999997,-2.693179889553808,Cs8V4P8O32,mp-541679
1.1896,-1.4402927728035715,K8Ti6S28,mp-541735
3.9576000000000002,-2.4770809301442864,Y2C1N2O2,mp-546864
0.0,-1.31701770617647,Y14C6I12O2,mp-554027
2.5926,-2.837689382875,Zr4V8O28,mp-554326
1.5653000000000001,-2.6166226439519997,Cr8F32,mp-554855
3.6782,-3.0961492169999993,Sr18Lu2V14O56,mp-555068
0.0,-2.4943167469166667,Ba6Tc6O18,mp-555174
0.0,-1.8493326694140633,Nd4Sn2S10,mp-555750
4.0849,-3.0794848559339716,Er12Si4Se8O40F4,mp-555942
1.9874,-1.9670793990391526,Rb1Tl1S2O8,mp-556120
2.8554,-2.1639029742632716,Rb8Mo12S4O52,mp-557413
1.6883999999999997,-1.823959428828126,Sm6Cu2Sn2S14,mp-558042
2.6822,-2.7479857804657146,Tm2Mo2Cl2O8,mp-559178
0.13629999999999987,-3.158363863571111,Li2V4F12,mp-559701
2.5343999999999998,-1.573384873013889,K4Ni12As12O44,mp-560548
2.4680999999999997,-1.3703429614924576,Rb8Ga8S16,mp-561407
0.0,-0.6064893369999993,Pr1Fe2Si2,mp-5627
0.0,-0.7236682200000004,Ca1Bi1Au1,mp-568398
0.0,-0.6154477681818178,Tm3Cu4Ge4,mp-568519
0.0,-0.644145618571428,Dy1P2Pt8,mp-568782
0.0,-0.40209283475000107,La10Al6Ni4,mp-569071
0.0,-0.3428285781250002,Ba6Al6Ga4,mp-569218
1.6429999999999998,-0.9456956245178573,Na4La4Ga16Se32,mp-569491
0.0,-0.2885761225000001,Tb2Cd6,mp-570403
0.0,-0.6580390100000002,Eu1Co2As2,mp-570456
0.0,-0.6046869984482764,Sc6Ni16Ge7,mp-570547
0.0,-0.3762902726785714,Zn8Ga24Ni24,mp-570845
1.5137,-0.9142960141607145,Na4Nd4Ga16Se32,mp-570876
0.0,-0.3890067687500003,Nd1Tl1,mp-571405
0.0,-0.5772446359999996,Lu1Co2Ge2,mp-571552
1.0558,-1.8085784950539996,Lu2C1Cl2,mp-573376
0.0,-0.5500274993055557,Tb16In4Rh4,mp-582119
0.0,-0.48106308037037016,Pr4Al38Co12,mp-582996
0.0,-0.6729680716666664,Ca2Cu2Sb2,mp-5910
2.0972999999999997,-1.2704294660757904,Rb8In8S16,mp-601861
0.0,-0.6536846700000005,Gd2Cu2Si2,mp-607182
0.30069999999999997,-1.1914351706285926,Rb2Cr6S10,mp-616544
1.2065000000000001,-1.1198674390159675,Cs2Tb4Cu6Se10,mp-6182
0.0,-0.2615175446666669,Eu6Ag4,mp-621667
0.0,-2.5817201995184083,Cs3Mo6P10O38,mp-622048
1.9139,-1.2787984120924767,Rb6Tm4Cu8Br26,mp-623862
0.0,-0.5359643133333338,Tb10Ni2Pb6,mp-640444
0.0,-0.15924782874999988,Dy12Co4,mp-646392
0.0,-0.30774932833333324,Eu4Ag4,mp-665747
0.0,-0.812081045,Sm4Pd4Pb2,mp-672272
0.0,-0.12140551499608163,Rb28Mg9In51,mp-675046
0.0,-0.7924283226086956,La18B6C12I10,mp-679979
1.0051,-0.34299627205882366,Ga36Te60Pb6,mp-686076
2.0809,-3.172835591437501,K2Sr1Ta2O7,mp-7148
2.32,-1.8020022937580817,Rb1La1Se2,mp-7176
0.0,-0.4786068986666677,Ba1B2Rh2,mp-7349
3.6286,-3.4385560852500006,Pr6Ga2O12,mp-753821
4.7223999999999995,-2.4674893613333335,Sm4H8Cl4O8,mp-757145
1.9498000000000002,-2.572206741071429,Li4Nb2Cr6O16,mp-758202
1.9816999999999998,-0.391334480153918,Rb16Ge36H60N20,mp-759330
4.0771999999999995,-2.0478239322727276,Li4Fe2C4O12,mp-759605
3.0134999999999996,-3.0546395774999997,Ho8Te4O24,mp-768762
0.20310000000000006,-0.6168459465277785,Y4B16Mo4,mp-7691
0.22710000000000008,-2.4363546809766072,Mn8P4O20,mp-770547
4.9852,-2.250310812960423,Rb8S8O28,mp-770773
1.1762,-1.532806354874546,Na40Co8H8O32,mp-774341
0.0,-0.35125045803571453,Cr12P4,mp-7806
0.0,-0.022875053333333284,Cr1Ni2,mp-784631
6.6924,-3.6939916732837554,Cs2Zr1F6,mp-7903
0.0,-1.6776060073229173,Na1Ti1S2,mp-7942
2.7786,-2.7744896446424994,Sn2F6,mp-8289
0.0,-0.3421671599999998,Li1Pd1Au2,mp-861930
0.0,-0.8348526337499997,Sc2Zn1Pt1,mp-862258
0.0,-0.30317327250000004,Sc2Zn6,mp-862260
0.0,-0.720546080000001,Sc2Co1Ir1,mp-862712
0.0,-0.5705191968749999,Pm2Ga6,mp-863682
0.0,-0.7439972075000005,Pm2Ge1Pd1,mp-863685
0.0,-0.30481975547619117,Yb4Ni13C4,mp-864632
0.0,-1.0152213575000006,Yb2Pd1Pt1,mp-864786
0.0,-0.7883312324999991,Hf2Tc1Rh1,mp-864916
0.0,-0.5851606398749998,Na1Pr1Au2,mp-865118
0.0,-0.67146073375,Y1Cd1Au2,mp-865522
0.0,-0.32167593000000005,Yb1Mg1Tl2,mp-865813
0.0,-0.333764124375,Yb1Nd1Zn2,mp-865843
0.0,-0.4032985191666669,Li2Ag1Au1,mp-865879
0.0,-0.7422811312500013,Gd1Sn1Rh2,mp-866089
0.0,-0.27931070874999975,Lu2Tl1Cd1,mp-866133
0.0,-0.46320789249999983,Y1Mg1Hg2,mp-866164
0.0,-0.3082506283333335,Li1Ca2In1,mp-867211
0.0,-0.4636696025,Tb1Mg1Hg2,mp-867234
0.0,-0.2841354152083331,Sm1Cd1Ag2,mp-867853
0.9732999999999998,-1.2413947158250003,K4Mn2S4,mp-8713
4.600099999999999,-2.4115246434916666,As2F10,mp-8723
0.6866999999999999,-0.40138812613793107,Rb4Sn2As4,mp-8931
0.0,-0.8264341816666665,Y2Si2Au2,mp-9025
0.8788,-2.304333180892858,Ba2Hf1S4,mp-9321
0.0,-0.7228428566666653,Sc2Ge2Au2,mp-9350
2.3343,-1.7016824796666665,Na3Ni2Sb1O6,mp-971678
3.6073,-3.0806426865,Sr4Sm2Sb2O12,mp-972216
0.0,-0.3034551523214282,Ho2Al6C6,mp-973634
0.0,-0.01868023500000149,Os2Ru6,mp-974326
0.0,-1.5677238638266289,Rb2Bi2O5,mp-975106
0.0,-0.47683928374999995,Yb2Zn1Rh1,mp-977423
0.0,-0.1477905374999997,Nb2Co6,mp-977426
0.0,-0.32353719900000044,Sm8Re4C8,mp-978850
0.0,-0.4768462112500007,Tm1Sc1Ru2,mp-980206
3.2451999999999996,-2.257106734166667,Sr2As4O12,mp-983061
4.4817,-1.4715494470233335,B2N2,mp-984
0.0,-1.1434070515236663,Ca6In2N1F1,mp-989404
0.0,-2.7704592489898623,Cs2Rb1Pb1F6,mp-989525
1.0050999999999999,-1.1939661088163793,Cs2Br1Cl6F1,mp-989543
0.0,-0.3381884705357141,Mo12P4,mp-10004
0.0,-0.5758318116666666,Er2Zn2Ga2,mp-1018694
5.8332999999999995,-2.756043263603741,Na2Li4B2P4O16,mp-1020646
0.0,-0.6436312572222226,Yb1B2Ir3,mp-1025071
6.129,-3.5271333452675,Zr1Zn1F6,mp-1025509
0.0,-0.8236467649999994,Ce2Si4Ru2,mp-1025521
0.0,-0.7598024125000009,Hf1Rh3,mp-1027
1.7471000000000005,-1.620942617439999,Hf4Mg4N8,mp-1029834
0.0,-2.9684838707500005,La4Mg2Rh2O12,mp-10320
0.0,-0.6014542840000004,Lu2Al1Ni2,mp-1070507
0.0,-0.3041152372222224,Al2B2W2,mp-1070916
0.0,-0.4578807331250007,Nd2Co2Si1C1,mp-1070917
0.0,-0.33142446083333255,Er1Cu4Au1,mp-1077290
0.0,-0.818419394666666,Tm4In2Au4,mp-1078625
0.28459999999999974,-1.9100135540475005,Ba2Cd2Sb2F2,mp-1078693
0.0,-0.682479953,Ce2Al4Au4,mp-1078886
0.0,-0.18758297875000096,V6Fe2,mp-1079399
0.0,-0.43554328066666625,Nd4In2Ni4,mp-1079664
0.0,-0.2729325799999995,V1Pt8,mp-1079997
0.0,-0.41237587866666703,Pr4In2Ni4,mp-1080181
0.0,-0.5381850977777766,Nb3Fe3B3,mp-1080817
0.0,-0.4818539603472208,Ce1Ni2B2C1,mp-10860
0.0,-1.6895268649404767,Ti5In1S8,mp-1094043
0.0,-0.8119412896666667,Lu4In2Au4,mp-1095152
0.0,-1.2129155375,Tm4Si4Pt4,mp-1095501
0.0,-0.5576952846969703,Pr3Ag4Sn4,mp-1101777
0.0,-0.05838534166666657,Sm4Re8,mp-1102035
0.0,-0.4222446438888892,Ti4Cu4Ge4,mp-1102042
0.0,-0.8626612083333338,Yb4Ga4Pd4,mp-1102228
0.0,-0.9084950808333344,Y4Ge4Ir4,mp-1102373
0.0,-0.8954541758333328,Ho4Al4Pd4,mp-1102737
0.0,-0.6349128836363637,Y3Cu4Ge4,mp-1103265
0.0,-0.5613803291666665,La8Au4,mp-1103395
0.0,-0.4972749449999999,Hf2Ni8As4,mp-1104089
0.0,-0.6289210157142853,Tm2Ni8As4,mp-1104519
0.0,-0.06933621821428508,Nd10Co4,mp-1104652
0.0,-0.8950593212500007,Y4Ga4Pd8,mp-1105559
0.0,-0.8793164587500009,Gd4Ga4Pd8,mp-1106136
1.7409000000000001,-1.7770775183059997,Na6Mo2Cl12,mp-1106352
0.7414000000000001,-0.38356521912499986,Na8As8,mp-1106381
0.0,-2.2607226107829654,Rb2Cu1Pd1F6,mp-1111483
4.9311,-3.4008954109553793,Cs2Y1Tl1F6,mp-1112482
1.9467999999999999,-1.2218401330747128,Cs2Sc1In1I6,mp-1113068
0.0,-0.5617503058333334,Yb8Pb4,mp-11544
1.7006999999999999,-1.4964054413750003,K1La1Te2,mp-11739
0.0,-0.5719160429411767,Er4Ga12Pd1,mp-1181425
0.0,-0.3640979687499999,Ca1Y1Cd2,mp-1183556
0.0,-0.808231395,Gd1Lu1Ir2,mp-1184485
0.0,-0.35134336,Li1Ce1Hg2,mp-1185334
0.0,-0.5091998374999998,Mg1Pd2Au1,mp-1185923
0.0,-0.3974841362500001,Mn1Zn1Pd2,mp-1186001
0.0,-0.2430069956250005,Pm3Ga1,mp-1186501
0.0,-0.24044775437499943,Ta2Nb1Re1,mp-1186767
0.0,-0.34265393,Yb1Dy1Zn2,mp-1187609
0.0,-0.5923823917647055,Dy4Ga12Pd1,mp-1188432
0.0,-0.6919617746875,La10Ge6,mp-1188469
0.0,-0.7337670975000001,Ho4Sn10Rh6,mp-1188971
0.0,-0.4483879831250004,Eu12Au4,mp-1189094
1.0276000000000005,-2.486834311687501,Nd2Ho6S12,mp-1189307
0.0,-0.3178149631249987,Eu12Rh4,mp-1189512
0.0,-0.9956903666666671,Y6Ge6Pd6,mp-1190225
0.0,-0.5405587775000003,Yb12Pd4,mp-1190258
6.8594,-3.70846390478,Na3Ca1Mg3Al1F14,mp-1191931
0.0,-0.6494564558333322,Er6Re2B14,mp-1191966
0.0,-2.4268544675000006,Nd10As8Au3O10,mp-1194538
0.7390000000000008,-1.691914571308594,Nd8Zr4Se20,mp-1195333
0.34750000000000014,-0.27742369343750006,La22Mn6C36,mp-1195612
2.23,-1.4266711607500007,Na24Nb8S32,mp-1196173
0.0,-0.6631667766666678,Y8B24Ru4,mp-1196778
0.0,-0.3560390203749996,Sm6Co8Sn26,mp-1196900
1.9717000000000002,-2.5804052414282053,Cd4Bi4B4F40,mp-1196929
0.0,-2.2430490509868406,Ce18Sb10O10,mp-1197286
5.416799999999999,-2.8145197902002557,Na16Mg16P48O144,mp-1197474
5.0234000000000005,-3.05181923752359,Ba4B4As2H6F36,mp-1198263
0.0,-0.2996176132499997,Pr6Rh8Pb26,mp-1200080
0.0,-0.24883961666666643,Ho1Cd1Cu4,mp-12007
0.0,-0.2509610899999994,Er1Cd1Cu4,mp-12008
6.892399999999999,-4.05262569083037,K18Ho18F72,mp-1202279
3.2153000000000005,-1.68136956216875,Na4Ga4Se8O24,mp-1202879
1.0327000000000002,-2.3118360200390633,Pr8Hf4S20,mp-1203224
3.7713,-2.0924024740187996,Nd4Re12H24O60,mp-1205210
0.0,-0.5351893321969698,Sm3Ag4Sn4,mp-1205500
3.7310000000000003,-1.6290401075999998,K2Sr2I6,mp-1205548
0.0,-2.919267000250001,Ba2Eu1Mo1O6,mp-1205758
0.0,-0.2667211172222221,Ho3Mg3Ag3,mp-1205940
3.3998999999999997,-3.63371106625,Ba2Tm1Ta1O6,mp-1206029
0.0,-0.5281795600000004,Eu2Al2Ge2,mp-1206175
0.0,-0.31721094444444414,Dy3Mg3Tl3,mp-1206809
0.0,-0.8283102844444438,Sc6Te2Ir1,mp-1206893
0.0,-0.6006824131944448,Y4Fe4B16,mp-1207634
0.0,-0.6792678962499998,Tm4Ni4Ge8,mp-1207716
0.0,-0.5988676479166669,Tm8Al4Ge12,mp-1208050
0.0,-0.7165787685714291,Tb4Ga18Rh6,mp-1208547
0.0,-0.879000603,Sc4Ti2B4Ir10,mp-1208997
7.1692,-3.596361582103667,Rb8Mg8Be12F48,mp-1209662
2.7167,-1.543895749148707,Rb8La4I20,mp-1209667
0.0,-0.5232256845833335,Pr16Cd4Pt4,mp-1209686
0.0,-0.768420802,Nd4Si10Ni6,mp-1209921
2.4093,-3.204141561721111,Na4Ca4Ti4Mn4Si8O32F4,mp-1210293
0.0,-0.5293193020000009,La6Al3Ni4Sn1Ru1,mp-1211354
5.5662,-2.6001030520560002,K4Ca4Cl12,mp-1211643
0.0,-0.13986514293333344,K1In2Ga2,mp-1211922
0.0,-0.14437330701388854,La2In4Cu18,mp-1211998
0.0,-0.6536054316666664,Hf8In4Pd8,mp-1212691
0.0,-0.6561784521052636,Er6Al24Ru8,mp-1212925
0.0,-0.9506030683333341,Er10Ge4Sb4,mp-1213113
0.006400000000000183,-1.3483085418520575,Cs2La10Ru2I17,mp-1213735
2.6466000000000003,-3.247205149749999,Ca4Ta2Cr2O12,mp-1214103
0.0,-1.6285303617258333,Ag2Pt2F12,mp-1214922
0.0,-0.04724156833333263,Zr1Nb1Cr4,mp-1215217
0.0,-1.8640609621875004,Y3Ge1S2,mp-1216054
0.0,-0.46683020374999984,V3Cr3Si2,mp-1216481
0.0,-0.3460379429999996,Y20Ga6Co14,mp-1217060
0.0,-0.4425735384722221,Ti4Al1Ge7,mp-1217144
1.1926999999999999,-0.9468068176562499,Ta1V1Cu6S8,mp-1217849
4.2742,-3.571378165104168,Sr2Pr2Al6O14,mp-1218014
0.0,-0.42416301812500024,Ta2Al2Ni12,mp-1218041
0.0,-0.048769379642857574,Sm2Mn17C2,mp-1219352
1.451,-0.7255812769140633,Nb1Cu3Se2S2,mp-1220452
0.0,-2.7417257924608847,Na9Yb3P6O24,mp-1221307
0.0,-3.5505185132099997,Na3Eu3F12,mp-1221406
0.10289999999999999,-1.7879607165657145,Li2Mn2Rh2O8,mp-1222353
0.0,-0.16427405833333295,Li2Ga1Cu3,mp-1222673
4.3103,-3.3483661486439997,K1Mg3Al1Si3O10F2,mp-1223512
0.0,-0.9237904909302328,La4Zr8Ni15As16,mp-1223533
5.2355,-2.855600942285715,Ho4P20O56,mp-12237
1.2752000000000001,-2.3950116038779776,K8P8Pd4O28,mp-1224154
0.0,-0.3622706627777781,Hf2Al3Ag1,mp-1224324
0.0,-0.15635916446153802,Hf14Cu51,mp-1224756
1.2838000000000003,-1.1364275517410707,Er2Cu6S6,mp-1225120
0.0,-0.19257881833333337,Dy2Fe1Co3,mp-1225366
0.0,-0.79318663515873,Dy5P12Ir19,mp-1225469
0.0,-0.17984252444444515,Cu2B3Ir4,mp-1225826
0.0,-0.8959911250000007,Ce2Pt2Rh2,mp-1226551
0.0,-2.6108507642500003,Ba6Ho2Ir2Ru2O18,mp-1228398
0.5061999999999998,-1.52049641244,Mg2Zr2N4,mp-1245429
0.0,-0.7466621191666665,Ho4Zn4Rh4,mp-13380
0.0,-0.34466586416666684,Sb8Pd4,mp-1356
1.6511999999999998,-0.48328949846354224,Tl4Si2Se6,mp-14241
0.0,-0.2179843633333333,Sr4Zn20,mp-1435
0.0,-0.4955620288888885,Hf6Ni1Sb2,mp-15297
0.0,-2.687833135723684,Li24Yb4B12O36,mp-15363
0.0,-1.0044018424999992,Tb1Pt3,mp-1549
0.0,-0.5302927489583329,Dy8B16C8,mp-15644
0.059500000000000774,-0.27931394000000054,Tl2Te6Mo6,mp-16096
3.6938000000000004,-3.3423588755555564,Er8W4O24,mp-17201
6.2806,-3.3305086804324877,Rb2Be6Zn2F18,mp-17229
0.46009999999999995,-2.6710748691666675,Yb8W4O24,mp-17646
0.0,-3.1160544121590927,Nd6Os2O14,mp-17666
1.1070000000000002,-2.0514431966145836,Ba4La4Cu4S12,mp-18079
3.6226000000000003,-2.5033648780238096,K2Ge4P6O24,mp-18203
4.2123,-2.9391423305905193,Ba4Mn4P8O28,mp-18703
1.9746000000000001,-2.717120596250001,Sr4Fe2W2O12,mp-19266
0.0,-0.21209911250000002,Li2Zn2,mp-1934
0.0,-0.29895722624999976,Yb4Cu4,mp-1937
3.6858999999999997,-3.0379031046153853,Sr3V2O8,mp-19386
2.5648999999999997,-2.4008317610749708,Rb8Mn4V8O28,mp-19472
0.0,-1.059118310833334,Y4Si4Rh4,mp-19728
0.0,-0.5359820384166667,Y3In1C1,mp-19817
0.0,-0.42971873952380946,Ce1In5Rh1,mp-20294
0.37829999999999986,-0.921335738584822,Eu4P4Se12,mp-20742
0.0,-0.3696591195238094,Ce1In5Ir1,mp-20975
0.0,-0.8700951926666669,Tb4In2Pd4,mp-21052
0.0,-0.48761499305555606,Sr2In8Pt2,mp-21124
0.028999999999999915,-0.46207903388888855,Gd1Co3B2,mp-21252
0.0,-0.08749674232142825,Ni8Mo16C4,mp-21536
0.0,-0.8567106182142855,Ce12Ge8Rh8,mp-21597
0.0,-0.6461512145833339,Ti12Mn12Si24,mp-21606
0.0,-0.3010346024999991,Li2Sn8Ir2,mp-21894
0.0,-0.8531417003333331,Sc4Si2B4Ir10,mp-22014
0.0,-0.2795731698333335,Na2Fe2As2,mp-22152
0.0829999999999993,-0.839724995000001,Eu2Cu2As2,mp-22277
0.0,-0.5574623616666662,Ce2Si2Cu2,mp-22740
0.0,-0.8277739200000003,Ho1Bi1,mp-22866
3.8512999999999997,-1.493483469,K1I1,mp-22898
2.617,-1.8306705987299996,Pb2Br2F2,mp-23008
0.9388000000000001,-0.26102809770833285,Pt12Br36,mp-23165
3.1283,-0.46816168874999997,As4Br12,mp-23317
0.0,-2.5022873557812506,La1S1,mp-2350
0.0,-1.5460985745066667,K2Os1Cl6,mp-23533
5.5024,-2.183157487228056,Mg2H4S2O10,mp-24041
4.8423,-1.6991656641856345,Rb4Ni2H24S4O28,mp-24688
0.0,-0.35414872750000015,Gd1Zn1,mp-2497
0.0,-0.6493068699999999,Yb1Hg1,mp-2545
0.0,-1.5775957771875007,Ti12O4,mp-2591
0.0,-0.8529684037500003,Sc1Pd3,mp-2677
0.0,-1.2645343741666675,Ir2O4,mp-2723
0.0,-1.1477888150000002,Tb1Sb1,mp-2724
1.5176000000000003,-1.5112485669290003,Nb2S4Cl4,mp-27362
0.0,-0.18642010708333245,Hf16Fe8,mp-2754
0.0,-0.4216551425000006,Sb2Pt2,mp-2845
0.0,-0.589312945333333,Er4B16,mp-2847
4.2242999999999995,-2.137818178199845,Cs8I24F128,mp-28578
0.0,-0.9736993536224487,Ca8P10Pd10,mp-28925