band_gap,formation_energy_per_atom,full_formula,task_id
3.8815,-2.3591447578571425,Li4W2O8,mp-19260
1.8936,-2.810572293593749,Ca2V4O10,mp-19305
2.1988000000000003,-2.782330955846,Sr4Mn2W2O12,mp-19315
0.4144999999999999,-2.617207885267242,Ba12Na4V4Ru4O34,mp-19501
0.16420000000000012,-0.6553643490277778,Y4Cr4B16,mp-20450
0.4093,-1.647595939374999,Sn2O2,mp-2097
0.7317,-1.800680679375,Zn2O2,mp-2133
0.0107999999999997,-0.6833794933333337,Ti12Fe12Si24,mp-21662
1.8963,-1.380464586875,Na40Ni8O32,mp-21996
0.2147000000000001,-2.8091508625,Tm2Cr2O8,mp-22647
3.7419,-1.3130192568200003,Sb4Cl12,mp-22872
5.0706,-2.4869865086473792,Cs2Na1Y1Cl6,mp-23120
1.8151,-2.83030230175,Ba2Y1Bi1O6,mp-23137
2.0112,-2.6843684799450003,Gd2Cl6,mp-23265
0.032399999999999984,-1.101879510500001,Y6C2I7,mp-23440
5.3401,-1.9931283230049657,Rb4H8O4F4,mp-23700
5.2359,-1.8778226933849207,K6P6H6N6O12,mp-23942
3.0837000000000003,-2.7164815048141406,Li18Cr6P16O58,mp-26975
1.6021999999999998,-1.2397779702413794,Cs1Sn1Br3,mp-27214
2.5316,-2.5053777840175,Li1Bi1F6,mp-27419
2.6,-1.266771365615763,Cs3Bi2Br9,mp-27544
3.6743,-2.311363789125001,Mg4Mo8O28,mp-27604
3.0398,-2.9293140310227272,Ca4V4O14,mp-27614
2.4078,-1.5921594247999995,Na16Pb8O16,mp-27622
3.5069999999999997,-2.877578632290125,Na16Ti10O28,mp-28017
1.8615,-0.9827056331875,K4Cu4S4,mp-28270
2.7319,-0.7838387250781249,S8Br16O8,mp-28407
0.5246,-0.3806051369583337,Na12Te36,mp-28478
1.9007,-2.283118093808,Sb14Se16F70,mp-28684
2.8504,-0.3738359256249999,Si8I24,mp-29109
4.0139,-2.4084839203653337,Y8In4Cl28,mp-29304
3.595,-2.6675842620697217,Sb28F116,mp-29369
0.004499999999999949,-1.1161871665402958,Re8P12Cl96,mp-29593
2.3269,-1.088447502550288,Cs32Si8Se32,mp-29834
1.7359999999999998,-0.4249802806709097,Mg2B18N2,mp-30091
2.3691,-3.6756254181714283,Sr8V8F40,mp-30297
4.4896,-3.1030046708055563,La4B20O36,mp-30926
3.2887000000000004,-3.0587013454166674,La2I2O2,mp-30993
1.0937,-1.1701067304285715,K4Nb6Br18,mp-31012
4.5395,-2.86878131875,Li12Ta4O16,mp-3151
4.9341,-0.864046653353333,H4N1Cl1,mp-34337
1.5367000000000002,-2.6560015890174995,Zn1Cr1F6,mp-35311
3.6582,-3.5392169320833333,Nd2Nb2O8,mp-3901
0.3844000000000003,-1.5529986507812508,Ba2Pd2S4,mp-4009
5.0441,-3.2734597258849196,Na2Hf4P6O24,mp-40161
0.7020999999999997,-0.18913952857142835,Zn2Sn2P4,mp-4175
4.5051000000000005,-3.3769421878571424,Sc2P2O8,mp-4200
0.4504000000000001,-2.0295299929947923,La6Mn2Ga2S14,mp-504891
2.5777,-0.6402959951862499,Na1Li3H8N4,mp-505381
3.8724,-2.48990734416822,Rb10Nd2Hf2Mo12O48,mp-532538
2.3448,-2.661232090359232,Na8Mn8Si8O28,mp-540871
1.2263000000000002,-0.6722885211420458,K8Re12Se24,mp-541060
1.5072,-1.2848381423888746,Rb12Nb8S44,mp-541745
1.3837,-0.7514173104375004,Ge2Pd2S6,mp-541785
1.4379999999999995,-1.0858713498522727,Na8Re12S24,mp-541895
3.0439000000000003,-1.571016393583333,Te12Pb12O36,mp-543039
2.6598999999999995,-2.07286924685,K2Sb2O6,mp-547792
0.9331,-1.3598211396767237,Cs2Cu2O4,mp-553310
3.7666,-3.8583470282500008,Pm16O24,mp-553921
3.7453,-2.920177780595238,Sr8Ga8B8O32,mp-554053
5.6533,-2.761622841579672,Li16P8O28,mp-554577
2.7192,-1.9510961955833328,Ge6Pb6O18,mp-554699
2.2417,-3.022087475952,V2F8,mp-554799
3.0026,-2.606966954164,Na1Tl2Mo1F6,mp-555970
3.1165000000000003,-2.485452247305556,Na14Al6O16,mp-556168
2.3999,-2.429300884062501,Ba6Fe4Br4O10,mp-556428
4.7252,-2.669844950108572,K2Ni1F4,mp-556546
1.218,-2.2504908796608327,La8S6N4,mp-556958
2.4632,-1.659393761065272,Cs4Sm4Ge4S16,mp-556979
2.8513,-1.7367207617985712,Sb32Cl8O44,mp-557022
4.3938,-2.9883192966876666,Rb4Be4Si4O14,mp-557027
3.4396999999999998,-2.6836094595652167,Li8Ga6Si6I2O24,mp-557112
2.103,-0.9354052951666674,K1Au1I4O12,mp-557441
3.2875,-2.6951885365000003,K2Er2W4O16,mp-558010
3.5814,-3.4521002575103443,Ba6Na4Cr8F40,mp-558077
2.5491,-1.936071912038925,Rb4In4As8O28,mp-558208
3.9997,-2.746114277603,Sr12Bi4Cl12O12,mp-558642
0.8792999999999997,-2.552126110104168,La12Er12S36,mp-558977
5.6047,-2.8616635315563914,K2Sr1P4O12,mp-558990
4.1240000000000006,-3.3946419974599995,Sr4Li4Fe4F24,mp-559277
2.7323,-2.3548456542935456,Rb8Mn8V8O32,mp-559311
3.5607,-2.8097804742202377,Ta8Cd4P24O84,mp-559692
3.8477,-2.617416329918333,Ho4Te4Cl4O12,mp-559805
4.5950000000000015,-3.01183739901923,K6Al6B6O21,mp-560217
1.1643999999999997,-3.1796240908460005,La4Mn2V2O12,mp-560369
4.0426,-2.3009984751875003,K12V4O16,mp-560869
2.0114,-1.0562370381131945,Mo4Se4S8Cl20,mp-560907
4.9636999999999984,-3.2630232857823143,Ba10P6Br2O24,mp-561125
3.8085,-3.3667517677083327,Sm6B2W2O18,mp-561186
1.8214,-1.7988122700000002,Tl2Cr6O16,mp-561221
2.769,-2.7159666293027267,Na4Fe2Ni2F14,mp-561395
3.041300000000001,-2.3035239492045467,Mg2As2O7,mp-5618
1.0204,-1.636722047555556,K4Te8O24,mp-561973
3.1387,-2.45810925827009,Co4P16O44,mp-562669
2.3894,-1.3484362729687511,Co16Se16O48,mp-562826
1.1709999999999998,-1.8973649868801783,Dy12Se12N4,mp-567391
1.8751999999999995,-1.6387351398785708,La4C2N6Cl2,mp-567756
2.4855,-0.969289970502726,Sm2C3N6,mp-568498
6.2431,-0.19592541615249948,Al4B12H48,mp-569787
4.0802999999999985,-1.2535216550799997,Ba2N6Cl2,mp-569812
1.4428999999999998,-1.7832971937442144,Cs2Ta6Pb1Cl18,mp-569879
0.046599999999999975,-0.3655535772499998,K6Bi2,mp-569940
0.7584,-1.45425583317475,Nb4Se4Cl12,mp-570270
1.7068000000000003,-0.906994716145834,Tl2In6S10,mp-572596
0.18430000000000035,-1.3295948786646907,Cs2Ce2Cd2Se6,mp-574426
0.5995999999999997,-0.38546898756944464,K40In20Sb36,mp-582813
0.36790000000000056,-0.5811245246875002,Co8Sb8S8,mp-5881
3.4647,-3.1127921882500003,Ba2Dy1Sb1O6,mp-6192
1.8749,-2.8224794939166657,Gd16Au8O36,mp-623092
4.726,-1.6223790522266668,Li2H6O4,mp-625211
5.5458,-2.5145238974046054,K8Mg8S12O48,mp-6299
1.3585000000000005,-2.3304720197416664,Cr4F20,mp-639662
4.5200999999999985,-1.9058563172119205,K1P1H2S1O3,mp-643033
3.0284,-1.5356805827982896,Na2Zn1H4Se2O10,mp-643776
3.111,-1.2355660262911108,Sn1H4N2F2,mp-643902
6.5983,-3.5823183950829653,K2Rb4Sc2F12,mp-6500
1.0731000000000002,-0.6674212926759265,Cs8Re12Se26,mp-650137
3.9854,-2.2295257400487016,Ni6P8Pb2O28,mp-651726
6.69,-3.42875514440538,Cs4Na2Al2F12,mp-6528
1.5366,-1.566200765602,Cu2As4Pb16Cl10O18,mp-653930
2.1517,-1.3352184794954545,Bi4Mo24Cl60,mp-679989
1.8862,-1.1088672072456909,Cs4Re12S16Br8,mp-683890
7.0587,-2.1432577664716668,B4H16O8F12,mp-696656
3.5571,-1.9037761283008328,Li4B4H8O16,mp-698205
3.563,-1.404713852200952,Be2H16N4O20,mp-706913
1.2673,-0.586030401,K2Mg2Sb2,mp-7089
6.0815,-2.606413583489608,Li4B20H8O36,mp-740714
4.1145,-1.3218195043675005,Sc4H12Cl8O40,mp-756748
5.3035,-2.137478938756639,Mg6B6P6H36O48,mp-758868
2.3312,-3.4657442707276127,Sm3Ta17O47,mp-765640
3.5024,-2.2802226725952393,Na4Bi2P2C2O14,mp-768140
3.0853,-2.8874748405416666,Sr7W4O19,mp-768610
3.7761,-2.1054524881341914,Dy8Se12O48,mp-769232
0.7714000000000001,-1.9368136943055558,Ba8Cu8O20,mp-772788
0.8276000000000001,-0.6883938126666665,K2Ca2Bi2,mp-773137
2.6358,-0.7688964949399999,Mg4Ge4N8,mp-7798
1.7601,-1.2184473120474144,Rb2O2,mp-7895
1.6621,-1.234195274978449,Cs2O2,mp-7896
6.0203000000000015,-3.1478917586904758,Ca8B16O32,mp-8056
1.2157999999999998,-1.133183122951999,Li2Ce1N2,mp-8181
2.091,-1.0987774681979168,K2Se1,mp-8426
2.6427000000000005,-0.3720221582127275,Mg6Tc2H14,mp-864942
3.0028,-1.85837572875,Dy2Br6,mp-864982
3.8453,-2.641155646195,Lu2Cl6,mp-865324
1.0972,-0.9901228434635416,Lu2Cu2Pb2Se6,mp-865492
0.1898,-0.5868797728571431,La4Zn12As12,mp-866648
0.5697000000000001,-1.8189191385614232,La20Se38,mp-8866
0.10089999999999977,-2.4730176242500006,Ba2Sr1Ir1O6,mp-9115
5.4297,-2.9698404742346938,Li4Mg4P4O16,mp-9625
0.3563000000000001,-1.7455956444687502,Ba2Cu2Se4O12,mp-9639
2.1234,-0.7943230358571428,Na12Al4Te12,mp-9680
1.4668,-2.5064501356324405,Ba6B2P2O6,mp-9712
0.4531000000000001,-0.4501278009049998,Sr1Ga1Si1H1,mp-979137
1.5235,-2.546141569739584,Ba6B2As2O6,mp-9793
1.4196999999999995,-1.0689481289279996,La4Cr4N12,mp-989612
1.4951,-2.052432163047333,Zn2Ag2F6,mp-998537
0.7269999999999994,-1.0609463425,Tb1Tl1Te2,mp-999121
1.1701,-2.6183116083925007,Mg1Co1F6,mvc-15850
1.4689999999999994,-1.70390137703125,Lu1Cu1S2,mp-1001780
0.40390000000000015,-0.3150202299999996,Mg2Sn2As4,mp-1009082
0.6791,-1.0063462075,Lu1Tl1Te2,mp-1017508
6.1844,-2.441573517987938,Ba4B8S12O52,mp-1019539
5.3908999999999985,-3.1131764868201763,Y4Be8B20O44,mp-1020740
0.4803999999999995,-1.4701883447656252,La4Cu4Te4S4,mp-10288
0.18409999999999996,-1.539008256745556,Li4Ti8N12,mp-1029424
2.2289,-0.9381016747516664,Li24Y8N16,mp-1029592
0.17110000000000006,-0.4710240769022844,K16Mn16N32,mp-1029804
2.557300000000001,-1.3595353060818192,Ca6Al6N10,mp-1029921
2.8598,-0.5980141255027266,Al4C6N12,mp-1029975
1.0716,-1.0061856757812504,Li2Sb2S4,mp-1079885
0.4262999999999999,-0.9392264625000004,Li4Yb4Sb4,mp-1095371
0.003600000000000492,-2.3785325670312503,Ce1S1,mp-1096
2.6773,-3.930757435387931,Y2Zr8O19,mp-1100897
1.5666999999999995,-2.5093490423863654,Tm4Pt4O14,mp-1101257
0.4915000000000002,-0.7544906962351199,Fe4P4S4,mp-1101971
0.33729999999999993,-1.7518138538541674,Tm4As4S4,mp-1102079
0.8772000000000002,-2.169637601086667,La4Te4Cl4,mp-1103189
0.04100000000000037,-0.17195713250000022,Pr12Ru4,mp-1105741
1.4251,-2.65479155,Ba4Co1Re2O12,mp-1106249
1.0595999999999997,-2.5103534876875004,La2Lu6S12,mp-1106254
5.853700000000001,-3.4462071372500005,Al4O6,mp-1143
0.017500000000000068,-0.3134838215277777,Ca3Al7Ag2,mp-11430
3.4112,-1.5607607646875,Li2S1,mp-1153
0.8799000000000001,-1.340005191171875,La4Cu4Se8,mp-11790
1.7300999999999995,-0.6311960724257142,Sr8H16Pd4,mp-1179173
0.4839,-1.4652359218462936,Na2Zn8H12S2Cl2O32,mp-1181719
0.5612999999999997,-0.03005570446666638,Mg149Au1,mp-1185573
1.2779000000000005,-1.2155662603385418,Y4Ag4Se8,mp-1188559
1.1475000000000004,-0.2934714444999997,Te12Ir2Br6,mp-1188957
1.0302000000000002,-2.485701196187501,Nd2Er6S12,mp-1189069
0.16670000000000007,-1.6296223485,Tb7Rh1Br12,mp-1189645
1.7836000000000003,-0.8303657724479172,Zn2Si2Ag4S8,mp-1189914
1.4149000000000005,-1.217057426197916,Li8Sn4S12,mp-1190364
3.2602,-3.1206878379545464,Sr6Li2Nb2O12,mp-1190404
4.4625,-3.274907705956333,Na5Pr4Si4O16F1,mp-1192370
3.5538,-2.9704067663881277,Cs4V4O4F16,mp-1193015
3.3651,-0.2742959661170369,Li3Mg3Al3H18,mp-1193498
1.9275,-2.585918017142856,Tb4Mo4Br4O16,mp-1193567
1.8129,-2.507504096607144,Sr4Tb8S16,mp-1193989
0.0045000000000001705,-0.8297795750641026,Ag10Hg2Sb2O12,mp-1194068
1.9535,-2.378488367882381,V4Ag4O4F16,mp-1194388
0.5605,-0.4313846268333335,K22Cd4Sb10,mp-1194660
1.0688,-0.16506955596217987,Rb28Zn2Ge32,mp-1194699
4.7392,-2.6288238958491674,Na8Lu4C8O24F4,mp-1194897
0.5337000000000005,-0.3805290156835932,Sn4Ir8Se20,mp-1195050
4.0889999999999995,-2.105287660985992,Cs4Sb4S8O32,mp-1195448
3.5422,-3.7609513011458335,Ba4Pr8Sc8O28,mp-1195909
1.6103,-2.425528488273809,Ba28Fe28O70,mp-1196071
1.2923,-0.3963281335416669,Tl16Ge4Se16,mp-1196396
6.5687,-3.0210916434225,Li8B12O16F12,mp-1196457
5.6628,-3.036732577898352,Tb8P24O72,mp-1196764
2.6655,-1.9563901310984841,Sn24Bi24O84,mp-1198288
0.1392,-2.402274539169208,Pr4Nb4S14O60,mp-1198513
2.4662,-1.8239758747272723,K24Fe8C48O96,mp-1199661
0.7013,-2.452265211730184,Ce4Nb4S14O60,mp-1199771
2.5346,-1.8261873645909097,K20Na4Fe8C48O96,mp-1200037
2.59,-1.6974704396875004,Hg4S8O28,mp-1200258
1.4105,-1.938304239572632,K2Mn12As14O48,mp-1200457
6.7725,-0.3348340505115149,Mg12B24H96,mp-1200811
3.8858000000000006,-3.251356433928572,Pr16As4Br4O32,mp-1201161
2.8919,-2.0477725656547614,V4B4Pb16O32,mp-1201529
0.9606,-0.4441120062413795,Cs16Se64,mp-1201920
1.0471000000000004,-2.3055011031640635,Pr8Zr4S20,mp-1202195
2.5219000000000005,-1.3877770506176923,Li10La10Si8N24,mp-1202424
5.6605,-3.0425869848214293,Ho12P36O108,mp-1202425
2.1585,-1.9147848552430558,Pr32In8Sb8S72,mp-1203279
6.0124,-3.3967614513627677,Ba4P3H1F24,mp-1203328
0.5956000000000001,-0.2728009865476197,Tc24Te60,mp-1204799
4.4991,-0.9717573077638092,Zr2Cl8O32,mp-1207478
0.07139999999999969,-0.9093773426190476,Zr12Co2I28,mp-1207507
0.4962,-2.83031587975,Yb4Cr4O12,mp-1207582
2.9712000000000005,-0.9255895859375004,Tl4Pb8Br20,mp-1208111
2.1986,-2.99596237,Sm4Hg2O8,mp-1208895
3.4868,-2.948660996030564,Rb8Ta6O19,mp-1209439
4.0903,-1.4212891604741376,Rb4Al4Br16,mp-1209467
3.2724,-1.2195517342241378,Rb4Ga4Br16,mp-1209533
5.6076,-2.5062382685724827,Rb8Mg8S12O48,mp-1209620
4.7732,-3.525488220895186,Na6Li2Ti4F24,mp-1210400
2.5968,-2.9325470729942853,Mg4Mn4Si4O16,mp-1210608
4.7822,-2.5256996727875,K8Y4Cl20,mp-1211533
3.0018,-2.1074258334741383,K8Rb8Ge8O24,mp-1211560
6.5064,-3.635548010114,K6Er2F12,mp-1211695
3.4285,-2.70787717527463,K2Rb1Nd1V2O8,mp-1211725
5.0016,-3.1789211594123388,K4Tm4P8O28,mp-1211744
4.1316,-2.566308988798469,K2Cd2P6O18,mp-1211746
3.0842,-1.5287661100635717,Li12Tm4N24O72,mp-1212059
3.484,-0.3161173054781805,H24C24N40,mp-1212579
1.3011,-0.4411289546428578,In12Te12Br4,mp-1212594
3.2912,-2.453777113333333,Dy4Tl4Mo8O32,mp-1213009
0.8994,-2.61733997025,Er4Rh4O12,mp-1213022
1.0355000000000003,-0.14286777152343744,Cu4Te4Se4I4,mp-1213068
4.4631,-3.850121501375,Er12Sc8Al12O48,mp-1213255
4.1056,-2.6090428239017243,Cs8La4Cl20,mp-1213724
3.5535,-1.546232448734546,Cd2Ga4Cl16,mp-1213982
3.6761,-2.808926286866884,Ca2Cd2P4O14,mp-1213987
4.659,-3.3470364281095,Na1Ca2Mg5Al1Si7O22F2,mp-1221134
2.753,-2.6205445199964275,Na6Cr4P6O24,mp-1221294
4.6735,-2.575238522796667,Na10B18H6O35,mp-1221784
1.9762000000000004,-2.1778402770312506,Li1Tb1S2,mp-1222297
1.4842000000000004,-3.1233713262500005,La4V2Fe2O12,mp-1223233
2.1557,-2.2931170388825404,Ho2P4H10O20,mp-1225006
1.5212,-0.3523028681140321,Cs4P4Se24,mp-1225967
2.1812000000000005,-2.5406755526508618,Cs8Si8Sb8O40,mp-1226548
1.2277,-2.6261287661574078,Ba8Sr4Nd4Co8O30,mp-1228541
4.1226,-3.3551141103411117,Ba4Lu2B4Cl2O12,mp-1228639
4.2231,-1.946685994777484,Cs4Sc12H24Se24O80,mp-1229290
0.07109999999999994,-2.89495925725,Ba2Tm1Ru1O6,mp-12729
3.993,-3.7575440149999992,Tb2Ta2O8,mp-12932
0.5007000000000001,-1.874694343656249,Nd2Lu2Se6,mp-13327
1.7753,-0.5535980632514879,Tm2Ag2P4Se12,mp-13385
0.7909000000000002,-0.7085096550416673,K4Pd6Se8,mp-14339
7.6904,-3.499554338714,Li18Al6F36,mp-15254
1.9538,-2.4965644751593272,Sb36Se16F156,mp-15380
2.5782000000000003,-2.2213034090873016,Hg8P16O48,mp-15994
2.4596,-2.1810482454166675,Li2Fe2W4O16,mp-16933
2.6782,-2.1996621560277787,Ti2Tl4Ge6O18,mp-17020
1.958,-1.1661324466066665,Ba8Nb4N12,mp-17024
0.00730000000000075,-0.7266646650000006,Sc2P7Ru12,mp-17042
0.7296000000000005,-1.070186264642857,Ca12Al4As12,mp-17186
4.6271,-3.349580285859373,Sr6Sc2B6O18,mp-17562
5.639399999999998,-4.423745113595,Lu12O8F20,mp-17673
3.7032,-2.829042742548701,Sr4Cd4P8O28,mp-17693
0.4289999999999998,-2.0586584665460537,La4Cu2Se8O24,mp-18267
0.11950000000000037,-0.3532206103809519,Mn4Mo2P24,mp-18302
2.4161999999999995,-3.1703856827499988,Gd4Cr4O12,mp-18331
5.3660000000000005,-3.1430607375487014,Sr4Mg4P8O28,mp-18469
3.8927,-2.6135123048320006,Na3Mo1O3F3,mp-18753
3.8074,-2.7414370158333328,Sr2Mo2O8,mp-18834
1.993,-2.4138443095768434,K4Mn2V8O24,mp-19228
2.0861,-1.7815788038888896,Fe6As6O24,mp-19398
1.727,-1.858412159273333,Mn1As2O6,mp-19409
3.589,-2.6170426881666664,K4Y4Mo8O32,mp-19499
0.04779999999999962,-0.4654022837499996,Gd1Sn3,mp-19919
1.4007,-2.6405498631424997,K1Cr1F6,mp-20076
1.4749,-2.89339338525,Nd4Fe4O12,mp-20407
0.012800000000000368,-0.4197845119927543,Er6Co58Si8B20,mp-21951
1.6772,-1.6005588724444446,K8Pb2O8,mp-22328
0.049000000000000384,-0.8616903550000004,Eu2Sb2Au2,mp-22475
5.1567,-2.051209711673333,Na4Al4Cl16,mp-23363
1.8315,-0.5189854779049998,Na4H8N4,mp-23850
2.8997,-2.50263942246,Cd1F2,mp-241
3.1801,-1.3502838923529414,Zr2I8O24,mp-27437
0.5675000000000008,-0.5846090413541679,Fe4Sb4S4,mp-27904
1.7794000000000003,-0.6529854926420455,Tl12S2I8,mp-27938
2.5222999999999995,-2.330919673035715,Li4Ga20O32,mp-28146
3.2106,-2.325021696312499,K8Be6O10,mp-28158
3.0162999999999998,-2.2108420679166656,Tl8B8O16,mp-28244
2.0836,-1.853016611875,Li4Bi4O8,mp-28253
0.1913999999999998,-0.2653712251874998,Na8Ga12Sb12,mp-28413
4.3026,-1.0775113064913795,Cs1Br1O3,mp-28873
2.9155,-1.699172603983334,K8Te16O36,mp-29128
0.6651999999999998,-0.14691615068749986,Na16Ge16,mp-29657
4.7566,-3.3809069495312505,Ba4Si8O20,mp-3031
0.4009,-0.12771497124999964,Cd2Si2As4,mp-3078
3.5465,-3.4532507691406256,Ca2Ta8O22,mp-3079
3.8071,-2.2780288221093747,Sc4Se6O18,mp-31065
0.3793,-0.3198419964224137,Rb16Bi16,mp-31105
1.3786,-0.7769064082933325,Li4Ca4N4,mp-31468
0.428,-0.2366367227678577,Hg2Ge1Se4,mp-3167
1.8338,-2.5547046985060002,Mn8Nb4O18,mp-31901
4.2651,-2.1533202211111107,B1As1O4,mp-3277
0.2083000000000004,-0.7703214037499997,Nd6Cu6Sb8,mp-3435
1.4838,-0.3230818342522324,Tl12P4Se16,mp-4160
2.7186,-2.8512885225799995,K8Gd4C6O18F8,mp-42089
5.2088,-2.3912800089375006,K8S4O16,mp-4529
3.763,-2.229658626,Li40Ga8O32,mp-4657
2.5261,-2.57903577625,Mg4Ge4O12,mp-4819
0.2575000000000003,-2.7803724008124995,Mg3Nb6O11,mp-505365
3.4176,-2.2462518660684605,Mn2Ga2H8O4F10,mp-510638
1.4369999999999998,-0.4317590021568629,Al36Sn6Te60,mp-530331
0.8614000000000006,-0.32462467039215703,Ga36Sn6Te60,mp-531948
3.5549,-1.0906524512791669,Li20B28S52,mp-532413
1.2881999999999998,-0.5502228008238635,Sn8S2I12,mp-540644
3.3707,-2.189418355212644,Rb4Mo6O20,mp-541075
1.6596,-2.2507883903567856,Tb4Au10F42,mp-541348
0.4896999999999999,-1.5921349630686212,Cs6Ru4Cl18,mp-541646
0.4517,-0.5144497752500001,K24Al8As16,mp-541682
3.6123,-1.7085626055351315,K8Be4H16Se8O40,mp-542813
0.000900000000000567,-2.2555195177953573,Ce12S12N4,mp-543033
3.8045,-2.956207912354762,K8In4Si16O42,mp-553982
4.6494,-1.7650626707025006,S8Cl8O16F8,mp-554012
2.1810000000000005,-1.6166618693923611,Ba4Li4B4S12,mp-554076
2.0773,-2.3453179862499987,Nd8Cu8Mo16O64,mp-554492
0.32509999999999994,-2.640034600000001,Eu4C4O12,mp-554518
4.4567,-2.6448899069677783,K8Te4Cl4F20,mp-554532
2.7369,-3.896925267526296,Gd16B8O24F24,mp-554636
4.3725000000000005,-2.7631230644668188,Ba3Si6N4O9,mp-554885
2.6028,-1.381531043165762,Fe8Se24O60,mp-555589
3.6111,-2.2900977553333326,Na2Re2O8,mp-5558
2.7114,-2.3095293098109257,Mo8P8Pb4O48,mp-556276
4.4414,-2.4838727317393183,Na8Sb4S4O16F12,mp-557006
4.815,-2.481108394,Na2Ca2C3O9,mp-557391
1.3119999999999998,-0.6417821534250002,K2Cu8As2S8,mp-557728
2.7983,-1.8574749454054056,Bi10Mo3O24,mp-558215
2.9582999999999995,-1.775054092500001,Zn3Te1As2Pb3O14,mp-558298
2.3814,-1.5967103439428567,Ba12Ho8P16S64,mp-559171
3.645000000000001,-2.6617337405392165,Sr2Bi4B8O20,mp-559364
1.9833000000000005,-2.79013151375,Sc4I4O4,mp-559760
1.8316000000000003,-1.0934274515269995,Tl4Re12S16Cl8,mp-560005
2.9009,-2.72498936875,Ta4Bi4O16,mp-560261
3.3366,-1.6492095269020006,As8Pb8Cl8O16,mp-560394
1.8126,-1.8278076607499996,Na16Te8O32,mp-560613
4.5434,-3.167135318216145,Ca1La2B10O19,mp-560622
2.3757,-1.5994626905428584,Ba12Dy8P16S64,mp-560798
3.8345,-3.498655724363333,Li6Ta6O9F18,mp-561011
2.4708,-1.7404687894407895,Ba2Fe4Se8O24,mp-561035
0.4180999999999999,-0.5722635773000008,K20Ta20Te60,mp-568318
1.4721000000000002,-0.6480380553156748,Cs4P2Se10,mp-569060
5.3967,-2.233846608507273,Yb4Al8Cl32,mp-570106
4.2793,-2.0797863388800764,Cs6Zn2Cl10,mp-570262
4.0779999999999985,-0.5823072999999998,Be2I4,mp-570886
3.35,-2.750523658531251,Na2Ta2Ge2O10,mp-6066
3.1387,-2.2345105223599986,Mn1Re2O8,mp-627380
4.1921,-1.7367371539788892,Al4In4Cl16,mp-638061
4.1056,-2.330315918619465,Rb2S2O4F2,mp-6384
2.9701,-1.34239407401341,Cs8Ag4Br12,mp-640052
3.4478,-1.9774460033333328,Hf1Tl8Mo6O24,mp-645513
1.3493000000000002,-0.8797797583264426,Rb12Ce4P8Se32,mp-669351
3.6236,-2.922215859214285,Na4Lu4Ge4O16,mp-6712
0.7195,-1.2124894688090908,Ca10Nb2N10,mp-675101
2.9365,-3.044192543162988,Cs2Ta2Co2O4F8,mp-684727
0.5743000000000005,-2.1367363107142867,Ga4Fe2O8,mp-690544
2.6897,-0.8306360085722583,Zn4Co4H72N24Cl20,mp-706995
1.7562000000000002,-0.7485550720312499,Tl4Ge2S6,mp-7277
4.0053,-4.006085755,Dy6Y10O24,mp-752458
2.1838,-3.3794072652187515,Y2Se1O2,mp-752658
1.0404,-2.5448792802777778,Sr4Li1Cu1C2O10,mp-753353
1.6345,-1.627916810100001,K2Li2Co2O4,mp-753408
3.0608,-2.323759565147976,K1Fe1P4H4O14,mp-758349
0.7168000000000001,-2.616720901047334,Li18Cu6F36,mp-760255