band_gap,formation_energy_per_atom,full_formula,task_id
2.0445,-2.57878358,Sm4Mo4Br4O16,mp-1194049
6.0546,-0.21960423593420247,B40H44C8,mp-1194548
0.3689,-1.5764989409374992,Ba4Pr4Sn8S24,mp-1194578
0.4910999999999999,-1.1685620233928573,Ca32As24,mp-1194887
4.6693,-2.756690558887826,K4Mg4As12F72,mp-1195089
1.5659999999999998,-2.0289635892931632,Ba2H2Pd1S10O34,mp-1195529
2.9007000000000005,-1.9665480515131597,Re4Sb8O26,mp-1196004
0.428,-0.9934699899999996,Yb56Al4Sb44,mp-1196138
5.2105,-2.7061494293817727,Cs8Li12B12P24Pb8O96,mp-1196318
1.7676,-1.0175927212968756,K8S24,mp-1196514
2.0761,-2.192352899224286,Tl4As4H8F40,mp-1196547
3.016,-2.200922711979455,Rb8Mn8Mo12O48,mp-1196652
4.6636000000000015,-3.361607233606321,Rb4Ba4Sc4Si12O36,mp-1197457
0.032700000000000166,-0.30874208037735845,Er12Al86Mo8,mp-1198488
1.9402000000000004,0.0,P42,mp-1198724
2.8421000000000003,-1.3863819428500002,K8I8O24,mp-1200675
0.06960000000000033,-0.3733768349019607,Sc88Ir14,mp-1200708
3.763,-2.3417122637043817,K8Mn6P12H16O48,mp-1201463
0.1714,-1.8178260515610605,Ag4S8O24F8,mp-1202574
0.7965999999999998,-0.5414276214843747,Tc12Se16I4,mp-1202969
1.399,-1.135096935203333,Ga14Sb14Te16Cl52,mp-1203106
4.019,-3.299863813916666,Sc12B20O48,mp-1203138
4.7814,-2.227098305721111,Na6B6H8O16,mp-1203588
1.6836999999999998,-1.2060622132363459,Ga16Sb14Se16Cl58,mp-1203849
0.20150000000000026,-0.6964727585000001,K4Ba8Cd8Sb12,mp-1205075
1.3818,-1.1686158280316092,Rb2Tl2O2,mp-1206230
1.0407000000000006,-2.588552039338749,Y4Mn4Fe4O20,mp-1207651
0.012900000000000134,-1.2668955690476185,Tb4P4Pd4,mp-1208300
3.3292,-2.6657778805128207,Sm4Hf4Mo14O56,mp-1209249
4.5936,-2.6577374473164825,Rb4Er8Cl28,mp-1209372
0.5623999999999999,-0.6461951100574712,Rb4Fe4I16,mp-1209403
2.4987,-2.5243440008737066,Rb8Gd4Cl20,mp-1209447
0.9066999999999998,-1.533076282364532,Rb8Zr6Be1Br20,mp-1209491
2.399,-2.9345857599185186,Na3Mn3Fe3F18,mp-1209999
2.7448999999999995,-2.0722767157916664,Na1Bi1Mo2O8,mp-1210092
4.2239,-1.6970025413500005,Na6Tb2Br12,mp-1210309
2.8623000000000003,-1.718342301864125,Na4Te2H12S2O20,mp-1210414
4.1943,-0.42133465059888897,Li4H8C4N20,mp-1210974
6.4933999999999985,-3.647027409114,K6Tm2F12,mp-1211645
2.061,-1.3476688906012142,Fe2Ni3H4Se6O20,mp-1212753
4.0166,-2.6528395180172417,Cs1Y1Mo2O8,mp-1213231
1.5180000000000002,-2.3599770112500003,Ca12Ge12Rh8O48,mp-1214274
0.032200000000000006,-2.6724823182500006,Ba6Tm2Ru4O18,mp-1214484
5.1491,-3.14965060717742,Ba6Tb2B18O36,mp-1214548
0.6143999999999998,-0.4221420253645836,As4Ru4Se4,mp-1214794
2.2157,-3.0823038027500003,Y4Cr2Fe2O12,mp-1216153
2.4144,-2.131687983794643,Sm18Al10S42,mp-1218873
0.6205000000000003,-0.8635246257222219,Na8Sr12As16,mp-1221310
2.1646,-2.117067581981,Mn2Nb2H16O10F10,mp-1221895
1.5435,-1.9317252663372733,Mn2Bi3Sb3O14,mp-1221942
2.8239,-1.3701609530084746,Nd6Pb6I26O80,mp-1222221
2.7822,-2.607755372472944,Li2In1Fe1P4O14,mp-1222830
3.3315999999999995,-3.6103522533593737,La2Zr2Ta6O22,mp-1222999
1.1911,-0.6500606181249999,Hg4O4,mp-1224
2.638,-2.8635234050839604,K8Ti4Cr4P12O48,mp-1224541
0.4443999999999999,-2.4976846648110134,Cs1In1Cu1P6O18,mp-1226046
2.6585,-2.265883813783252,Cs2Zr1Fe2Mo6O24,mp-1226541
4.0046,-2.0475270619687507,Mg4Se4O12,mp-12271
0.7236000000000002,-0.20317960641111132,K48Cu48Sn84,mp-1228096
0.0636000000000001,-2.509218559916667,Ba6Yb2Ir2Ru2O18,mp-1228196
1.2151,-2.6345309461574082,Ba8Sr4Sm4Co8O30,mp-1228582
0.1482000000000001,-0.5638766509259256,Ca65Ga24Sn19,mp-1229248
0.5514999999999999,-0.4012211082031247,Zn8Cu16Si8Se32,mp-1232332
3.8343,-3.61457471375,Sr4Y2Ta2O12,mp-12355
2.3574,-2.895505962083333,Ho4Sb4O16,mp-1238219
0.6340999999999999,-2.164575832637362,Cd2Cu1P2O8,mp-13361
1.6995,-3.3148044204166665,Y12Re4O32,mp-13627
2.1161,-1.2750888153194444,K36Ni8O28,mp-13749
0.8682000000000003,-0.10871648312624,Ag16P8Se24,mp-13956
3.4034000000000004,-1.0667496188070371,Li16Ta2N8O1,mp-14871
1.0249,-0.4092411707500001,Na16Ga16As24,mp-15431
0.2653000000000003,-0.9316304254545454,Ba3Li4As4,mp-15753
3.3194,-3.0014346351900003,K2Na4Li6Fe4Si24O60,mp-16283
3.8751,-3.6562566372500007,Sr4Tm2Ta2O12,mp-16605
2.0933,-1.661810451927084,Ba4Zn2Ge4S12O2,mp-17244
1.7088,-1.711487114956364,Zn2Au4F16,mp-17512
0.24489999999999945,-0.04490475877550994,Ag6Sn4Ge6P12,mp-17568
0.8063000000000002,-1.5588781342857143,Ba4Y8Te16,mp-17872
1.9247,-2.3026942313753835,Mn6V4O16,mp-17899
2.3029,-0.9397148688308192,Rb12Sb4Se12,mp-17912
1.4127999999999998,-1.3151472006785718,K8Mo4S16,mp-17980
2.0965000000000003,-2.2721476979861115,Ti4Tl8O12,mp-17986
0.4710999999999999,-0.912211305,Ba12Al4Sb12,mp-18439
4.244,-2.895405468000001,Na6Ca4Ta2O12,mp-18480
2.322799999999999,-0.9370883443750008,Ni2O2,mp-19009
3.5091,-2.883694532692308,Ba4Mg8V8O32,mp-19084
3.8302,-2.4001799604807688,Na10Lu2Mo8O32,mp-19464
3.2289,-3.1877002239062517,Ba4Cr4Si16O40,mp-19518
0.010200000000000207,-0.3987836540000004,Yb1Fe2Ge2,mp-20510
0.006000000000000227,-1.0773331507142858,Eu2P2Pd2,mp-20706
0.0028000000000005802,-0.3500805390909095,Ce1Sn6Ru4,mp-20752
1.3966000000000005,-2.4886399442857137,Sr4Pb2O8,mp-20944
1.2578,-1.8874563014285723,Cr4Hg2O8,mp-21074
2.9272,-1.894225977343749,Mo2Pb4O10,mp-21138
3.3869,-2.7284379490246295,K2Rb1Gd1V2O8,mp-21331
2.2726,-2.2962845935840765,Mn8Be6Ge6Se2O24,mp-21535
1.5602999999999998,-2.9695403172499986,Dy4Fe4O12,mp-22283
3.1937999999999995,-1.4246159276822912,Pb4Se4O16,mp-22342
0.35429999999999984,-0.8313604325595237,In4Hg2S8,mp-22356
1.6195000000000004,-0.7081005638822114,Sb16Pb6S30,mp-22737
0.15879999999999986,-2.181366778695,Zr2Cl6,mp-22871
0.18910000000000027,-0.9843652630208328,Cr2S2Br2,mp-22998
0.8613999999999997,-2.04026413884,Zr1Cl2,mp-23162
1.6713,-1.0842139094319996,Mo4N4Cl12,mp-23396
5.341,-1.5541121935319997,Be4H32Cl8O16,mp-23776
4.0576,-1.80605454896,Sr2H2Cl2,mp-23860
3.7974,-0.25358184156,Na1H1,mp-23870
5.3709,-1.8446072233350004,Mg4H8Cl8O4,mp-24337
1.2272999999999996,-0.16197066000000016,Al1Sb1,mp-2624
1.4875999999999996,-0.7357328551488092,Bi8P8S32,mp-27133
2.6373,-2.239487725520833,Nd4S4Br4,mp-27180
3.2677,-2.4787504724436937,B10Pb6O21,mp-27184
4.3499,-3.002290062241668,Nb2Sb2F20,mp-27472
1.6559999999999997,-0.15831779515625044,Li8P56,mp-27687
2.7708,-1.5514908356186161,Cs2Se1Cl6,mp-27830
0.5613000000000001,-1.8587620607688893,Ti2N2Cl2,mp-27850
0.9754999999999998,-1.658395952782,Nb12Cl28,mp-27880
2.0652,-1.552454176875,La2I6,mp-27979
2.9099,-0.9010446854622218,Ti2Cl8O32,mp-28481
4.1943,-0.1916486946719999,Si4H12I4,mp-28538
1.2971,-1.4420647361830552,Mn2Se4O12,mp-28669
0.6360999999999999,-0.3805326516666672,Nb8Te24I4,mp-28745
3.8288,-2.5031337390535726,Ge2P4O14,mp-28883
0.013199999999999878,-0.4723458541266667,Ba6Cu6N6,mp-29199
3.2238,-1.219259926861264,P8S12O6,mp-29204
3.3731,-1.64318983235,Na6Sc2Br12,mp-29417
1.0589,-0.0938804524895834,Cu6Se18I6,mp-29450
2.6891,-1.0049974266266666,Li4Be4N4,mp-29463
0.005999999999999339,-0.07139024062499999,Tl4Cd6Sb6,mp-29741
1.6965,-0.3811342530649995,Zn4Ge4N8,mp-2979
1.1304999999999996,-0.4637741735763892,Tl4Au8S6,mp-29898
0.008199999999999985,-1.5122568029457364,Tb16B4Br23,mp-29954
1.1394,-1.6626765973749995,K6Bi2O8,mp-30120
2.9405,-0.6549771464285714,Tl4Zn2I8,mp-30532
0.4072,-0.3454322299374999,K16Bi16,mp-31104
1.2876,-1.0986306626185711,Sr10Mo4N14,mp-31231
1.4259999999999995,-1.8916781929062505,Pr16Se24,mp-32689
3.7311,-1.8775819417500001,Na8As8O16,mp-3468
1.4298000000000002,-1.3743107908928576,Al5Cu1S8,mp-35267
0.008199999999999985,-0.6802148693333333,K2Te2Au2,mp-3553
4.8226,-3.307199752348485,Ca6B4O12,mp-3575
3.9354,-2.1634015361641667,K6Sn4S6Cl2O24,mp-42091
7.6012,-3.8898270796425,Al2F6,mp-468
1.9199,-1.6657115095333337,K8Na12In4O16,mp-504962
0.07640000000000002,-2.385830169963989,Rb4Ce4H8S8O36,mp-504990
2.1716,-1.4092031319980243,Cs2Tm2Zn2Se6,mp-505713
0.7063999999999999,-0.5701016736250004,Na1Li2Sb1,mp-5077
2.4614000000000003,-1.4991620624826396,Pb6Se2O10,mp-510293
1.7026000000000003,-1.5211998377011493,Ba12Cd2Ag4Sn8S32,mp-532680
1.3886,-0.8234815791570882,Cs2Te1I6,mp-540957
1.0322999999999998,-1.2050386529886363,K8Tc12S24,mp-541353
2.7147,-1.4024091465982145,K12Ga4S12,mp-541686
1.0822999999999996,-2.67135204539625,Lu4Mn8O20,mp-542397
3.3117,-2.4254996061520004,Sr2Bi2Cl2O4,mp-547244
1.5467999999999993,-2.2094704862109382,La2Cu2Se2O2,mp-552488
3.3552,-2.983287826114,K3Mo1F6,mp-553896
3.7890000000000006,-1.716671812500001,Ge2Te4O12,mp-554142
1.5234000000000003,-3.305359151750001,Tb4V4O12,mp-554811
3.0687,-1.796122538335455,K2Te6O12F2,mp-554818
5.1502,-3.599129531304285,Pr6Si4Cl2O16,mp-554826
4.8109,-2.344407829192857,K12Be8C12O38,mp-555866
3.3364000000000003,-1.3212728768269233,Al2I6O18,mp-555903
4.7263,-2.8362849960225924,Ga6Pb10F38,mp-556117
1.9255,-2.4521114310909087,Ba6Na2Bi2O12,mp-556316
2.2211000000000003,-2.5147200916181327,Na6Fe6P8O32,mp-556540
2.9928,-2.4688617613506247,Gd4Se4Cl4O12,mp-556551
2.8031,-1.9569411872115376,Bi16Mo16O72,mp-556586
2.1857,-1.9584192763000003,Na12Fe8As12O48,mp-556723
2.9778,-0.763521010442048,Zn4P6N12O1,mp-557537
2.9569,-3.8465139206770833,Gd8Ti4O20,mp-557626
3.3861,-2.8224224701351277,Ca8Si12Pb12Cl4O42,mp-558268
3.7704,-2.5304018566266664,Re4Sb4O8F32,mp-558576
3.2283,-2.3405500585227283,Ba2La4Te10O28,mp-559703
2.6721,-2.9831826196108038,Rb4V4O4F12,mp-559739
4.6961,-3.3415524084523818,Ca4Al4B4O16,mp-559759
2.8480000000000003,-3.7466607794318185,La12Nb4O28,mp-560349
2.3786,-1.5930272692428575,Ba12Er8P16S64,mp-560534
1.9429000000000003,-2.736448580264549,V12B6P18O72,mp-560575
1.6581,-3.1728548457142858,Li1La4Au1O8,mp-560605
3.8527,-2.315685032345982,Na8Sb24P16O80,mp-561062
2.8059,-3.0292420029704,Cs1Ti3P5O19,mp-561121
0.3462,-3.2839460736329995,K4Hf4Cu4F28,mp-561312
3.1255,-1.514272294198718,La6I18O54,mp-566599
1.9371,-0.11425009633333333,Mg4Si8B48,mp-567224
0.8722000000000001,-0.4709664401499996,K12Ga12As16,mp-567524
1.8104,-1.247783798273333,La8Ga4N12,mp-568036
0.04879999999999996,-0.47446535475490204,Ho16Ni80B40,mp-568440
1.3685999999999998,-0.4301313233333333,Hg36Bi8As16Br48,mp-568804
4.5211,-2.710627952445,Tb4Cl12,mp-570232
0.9464,-0.2083360070833334,Sn4Hg28As16I24,mp-571478
4.7843,-3.696785022613638,La8Si8O28,mp-5732
1.7167,-0.7702487016002154,Cs2Au2Se2,mp-574599
5.2547,-2.1354822602825,Li4Si4N4O4,mp-6015
2.2731,-0.9112379374233716,Cs4In4I16,mp-607987
1.0406,-1.3472286424945457,Y14C4I24N2,mp-619775
0.3805999999999998,-1.0912202365520836,K8Eu4Si4Se20,mp-628804
5.4874,-2.0368370392403565,Na4H4S4O16,mp-634378
2.0859,-0.9874852459225466,Sb2P6C2N6Cl30,mp-647342
0.8882,-2.332188756211565,Cs3Mn3V4O16,mp-648179
1.2953,-1.5277135475719044,Ta6In4Cl18,mp-662572
1.0268000000000002,-0.6883921370511362,K8Mn4Sn8Se24,mp-669410
0.4863999999999997,-2.57362259875,La4Eu2S8,mp-677272
1.9593000000000005,-1.6381060732916215,As4Pb28Cl8O34,mp-680722
0.8621999999999996,-1.9732729678125005,Nd2Zn2As2O2,mp-7061
0.3003,-0.8668204146350007,Sr12Co2C4N14,mp-721246
3.5032,-1.2198052911073334,In4H20N8F8,mp-733932
2.7848,-3.632140198157895,Gd6W1O12,mp-753421
2.1213,-1.9277214761566093,Rb4Sn2O6,mp-753798
3.2297,-2.0633064354374997,Na6As2O8,mp-756044
1.8307,-1.3719148821243845,Cs12Tl4O12,mp-756122
4.0092,-4.0295335220625015,Y13Ho19O48,mp-758033
1.4834999999999998,-2.4278075101310583,Li6V3Fe3P6H6O30,mp-760034
1.7921,-2.0545472921428583,Ga4Co2O8,mp-765466
0.4949000000000003,-0.40454083666666796,As4Ru2,mp-766
1.5288,-1.4947839990312506,K8Li4V4S16,mp-767165
3.0351,-2.770810430249999,Sr6Te2O12,mp-768941
2.8701000000000003,-3.53184629375,Gd2Ta6O18,mp-770998
0.33970000000000056,-1.12289142375,Zn1Pt3O6,mp-8207
2.9865,-3.448879482142858,Ba2Zr1O4,mp-8335
1.2085,-0.5631206462168373,K6P4Au2Se16,mp-866660
0.9630999999999998,-0.5161176954827589,Cs4As4Pd2,mp-8857
0.2256999999999998,-1.1222108831302091,K2Zr2Cu2Se6,mp-9318
1.8007,-0.9236850789664156,Rb4Nb2Ag2Se8,mp-9764
0.5679000000000003,-0.8691005504279999,Ca2W2N6,mp-989616
1.8935,-1.4036550970247126,Cs2Na1In1Br6,mp-996943
2.4307,-2.2076840565312503,K1Lu1S2,mp-1007636
0.6925999999999997,-0.18237198249999945,Be2Sn2As4,mp-1009084
4.4245,-2.7236438160662977,Rb4Li10B14O28,mp-1020664
3.1689,-1.2762067965270936,Rb4Cd2I4Br4,mp-1103709
0.4964000000000004,-0.4800683297142864,K2Te6Mo6,mp-1103956
1.5160999999999998,-0.6170571450848215,Er2Tl2P4Se12,mp-1105213
0.6576,-0.6918283843389986,Ba6Rh2C6N6,mp-1105268
4.5926,-2.420971877356,K3Lu1Cl6,mp-1111421
2.7019,-2.628066828455379,Cs2Tl1As1F6,mp-1112503
3.3165,-2.139796234364046,Cs2Sc1Ag1Cl6,mp-1112622
1.6637,-1.0804423674886363,K12Zn2Se8,mp-1147626
0.3258000000000001,-1.1915170999999998,Gd1Sb1Pt1,mp-11839
0.27990000000000004,-0.021706014499999926,Ho1Mg149,mp-1185534
0.10950000000000017,-0.00782612833333322,Mg149Mn1,mp-1185627
2.6453,-1.963667824349231,V1H6O3F3,mp-1187773
0.07879999999999976,-1.5528503894117642,Er6Co1Br10,mp-1189721
0.038000000000000256,-0.0795382487499996,Pr12Os4,mp-1189967
2.9153,-2.442848428601192,Lu2Co1Te2S2O14,mp-1190475
3.7979,-2.6894436425,Li2Lu2W4O16,mp-1190882
1.6471,-2.2273072752705954,Cs4Cd4B4O12,mp-1191636
3.4102,-0.3222437797285715,Sr4Ga4H20,mp-1192424
1.6021,-0.23460550313701956,Ir2Se6Br18,mp-1192469
1.7417999999999998,-0.7496294880899788,Rb2Ta2Cu4Se8,mp-11925
7.5838,-3.737995713015555,Li3Mg3Al3F18,mp-1193222
0.7829000000000002,-2.6391114986160717,La4S4O20,mp-1193569
3.3752000000000004,-1.9615394486354167,Sr4Ni2Se6O18,mp-1194096
5.6203,-2.8569900630563634,Ca4B12H4O24,mp-1194867
2.3949000000000003,-1.5314743189375009,Ba8Ge8S24,mp-1195469
5.1624,-3.0061607473214305,Mg8P8O28,mp-1195826
2.8285,-2.171292374066221,Bi32B8P8O80,mp-1196273
1.9814,-2.8172494168572415,V8Pb6O6F38,mp-1196298
4.1992,-1.7731001824980264,Cs4Mn2H24S4O28,mp-1197828
3.408300000000001,-2.8544983388329994,Cr4Pb8F28,mp-1197980
5.5235,-3.2487770771974365,Ta4Cd4B4F40,mp-1198141
3.7017,-2.174367930598958,Ba4Se4O16,mp-12010
1.3230999999999995,-1.5178794208534492,Cs20Fe4O16,mp-1201412
0.21319999999999986,-1.3706387064166672,K1Ag2As1O4,mp-12015
3.6282,-2.3644033014375,Na8Mo4H8O12F16,mp-1201525
0.6941999999999999,-1.6988532723333332,Y40Ir8Br72,mp-1201999
0.21079999999999988,-1.4813032040625005,Pr14C6Br20,mp-1202671
0.21809999999999974,-2.237702327289333,Sc40Ir8Cl72,mp-1203297
2.4297000000000004,-1.6227598974337119,V4Pb8Se12O42,mp-1203641
0.5520000000000005,-1.8381368715049995,Sc32Fe8Cl40,mp-1203959
3.3421000000000003,-2.32833055822302,Cs2Mn2Ga4P6H8O28,mp-1204881
0.017100000000000115,-0.10189248826086923,Mg6Al36W4,mp-1205144
0.016499999999999737,-0.6054054672222217,Lu3Ag3Ge3,mp-1205963
0.7676999999999996,-0.8072032151999998,K2Te2Pd1,mp-1206350
0.0041999999999999815,-0.9545631480000004,Eu1Mg2As2,mp-1206394
3.8583,-1.9586336340625008,Tl8Fe8S12O48,mp-1208266
1.2383000000000006,-3.2155856892500014,Pr4V4O12,mp-1209329
5.857900000000001,-3.1938228452615607,Rb8Be12Zn8F48,mp-1209690
2.2652,-2.130700730086251,Na2Fe2As2O8F2,mp-1210021
3.3386,-2.6476887425,Li2Gd2W4O16,mp-1210920
5.668900000000002,-3.3712896506200005,Mg8Be12Tl8F48,mp-1210925
3.7782,-2.6853244708333333,Li2Tm2W4O16,mp-1210997
1.1021,-0.5769376861527777,K8Hg12Se16,mp-1212008
4.3679,-3.847513008,Ho12Sc8Al12O48,mp-1212436
3.7031,-2.738073299979064,Cs2K4La2V4O16,mp-1213137
4.4735000000000005,-2.6933327209026894,Cs4Sm8Cl28,mp-1213272
3.1871,-2.2738715643571434,K24Ga24Ge24O96,mp-1213396
0.9172000000000002,-0.9793797957142858,Ca22Al2Sb18,mp-1214215
1.7671,-2.5860038604319056,Ba10Mn6O24F2,mp-1214575
0.6497000000000002,-0.007562180963541701,Te3Se3,mp-1217322
0.02870000000000017,-0.2224441947619049,Yb12Cd72,mp-1217591
4.421200000000002,-3.7487018942261914,Sr2La8Si6O26,mp-1218249
0.5303,-1.1111992222115386,Sr56Ga4As44,mp-1219124
3.645,-2.117137721631578,K8Zn8Mo12O48,mp-12194
0.02950000000000008,-1.424932804607843,Sc19Ru4Br28,mp-1219646
3.1159000000000003,-2.9444977115833337,Mg1Ti2Ni1O6,mp-1221952
2.9294,-3.6787542540740734,La4Ta4Ti4O24,mp-1222878
4.8766,-3.2230639865,K4Mg10Si24O60,mp-1224161
3.0684,-2.778866854300766,Cs2Ta2W2O12,mp-1225854
5.7698,-0.4967803628922602,Cs1B1H4,mp-1225884
0.7254,-1.3193281668663794,Cs1Li1Mn1S2,mp-1225894
2.6984,-0.7423383251097174,Cs4W12Br28,mp-1226055
0.959,-0.8159440986335786,Ba4Ag16S14,mp-1228614
1.0404,-0.6049015757935416,Ag4Hg4S4Br1Cl3,mp-1229155
0.03560000000000008,-0.2025749732142858,Ca12Cd72,mp-1229298
1.7915000000000003,-1.2541182560818178,Ca20V4N20,mp-1247440
6.824,-3.8469519141266666,Mg2F4,mp-1249
1.3104000000000005,-2.0404314214732144,Y2Zn2P2O2,mp-12509
4.4234,-4.0447750322500005,Ho6Sc2O12,mp-13840
2.3663000000000003,-2.218333892781251,K1Ho1S2,mp-15786
2.0731,-1.8001690166785718,K4Ba4Nb4S16,mp-16780
4.7617,-3.387823640492857,Sr4Sb4F20,mp-16903
0.038699999999999964,-0.6646085624999998,Yb8Ge4,mp-1694
6.2801,-3.981908784651092,Rb4Hf6O2F24,mp-17256
1.2098,-0.4956713427142862,Na16Al16As24,mp-17473
6.956099999999998,-4.317834280707143,K2Tb6F20,mp-17838
3.7263,-3.251218327222224,Nd8W4O24,mp-18057
0.13680000000000006,-0.9672518970588232,Lu4Ge6Rh7,mp-18222
1.1126999999999998,-1.5019192899062506,Na8Co2O6,mp-18762
2.2208,-1.5154420803611492,Cs4Mn4O16,mp-18994
2.0141,-2.210150078750002,Tl2V6O16,mp-18996
2.4743,-2.2165069050000006,Mg2Cr2O8,mp-19120
1.9441,-1.933802768,Na1Fe1O2,mp-19359
2.4612,-2.6055677414682528,Cr6P6O24,mp-19401
1.9683,-2.8017288373214306,Sr16Cr8O32,mp-19514
3.2142,-2.183234437977273,Na8Mo8O28,mp-19760
0.025599999999999845,-0.5553337640277766,Gd4Co4B16,mp-21230
0.017800000000001148,-1.015254172857142,Gd1Ni2P2,mp-21473
0.04679999999999929,-0.358755773793104,Tm2Ni21B6,mp-21608
0.0129999999999999,-0.3807244443103447,Mg6Ni16Ge7,mp-21725
0.8535999999999997,-0.488969403046875,V1Cu3Se4,mp-21855
1.4204,-2.8183564092500006,Ba2Ce1Pt1O6,mp-21879
0.05900000000000016,-2.9645829784420004,Pr4Mn4O12,mp-22564
1.6383,-0.8017702602011489,Cs2Cu4Br6,mp-23017
4.3102,-1.7656718739999997,K1Br1,mp-23251
1.9923,-1.564302595708334,Cr4Ag1Bi1O14,mp-23565
4.4577,-3.642641581125715,Sm12Si8Cl4O32,mp-23622
5.0519,-1.3919521163534614,Ni2H40S4N4O28,mp-23912
3.3035,-1.7485666149789743,Be4Co2H40N4O12F16,mp-24347
3.5389999999999997,-1.0792861510155554,Cd4H16N4Cl12,mp-24356
0.6715,-2.362732902976191,Li2Cu2P8O24,mp-26262
1.3043999999999998,-2.674242706468255,Li2V4P6O24,mp-26712
3.045,-2.6810848235714277,Li6Cr4P6O24,mp-26971
0.01909999999999989,-0.06577557166666638,Sr1Cu5,mp-2726
3.4377000000000004,-2.316371588598901,Sn12P8O32,mp-27493
1.8204,-0.5283376484821432,Si4Pb8Se16,mp-27532
2.1471,-2.1899938363240357,Rb2Ti1Cl6,mp-27827
1.4083,-1.7227021906666664,K4Zn6O8,mp-28371
0.022699999999999942,-1.7232888147222225,Mg2Bi4O12,mp-28447
2.2777,-1.2086228787666666,K4In4Br12,mp-28529
3.9009,-1.544840630125392,Rb8Pb2Br12,mp-28564
3.483,-1.1240159957499998,Na4Ga4Br16,mp-28679
0.855,-0.2552027450000001,Te8Mo2Br2,mp-29190
2.101,-2.0177635839999994,Cd4Ge14O32,mp-29213
2.188,-1.3028695431411113,Ca24Al16N32,mp-29820
1.3581000000000003,-0.553875545309759,Ba8B16Se52,mp-30105
3.3566000000000003,-2.0229044970150865,Cs12As4O16,mp-30119
4.4001,-1.8885579005641384,Rb4Ga4Cl16,mp-30231
1.4294,-1.74703936511125,Tl8Au8F48,mp-30308
0.9985000000000004,-1.4350097174400007,Ba2Zr2N4,mp-3104
1.5829999999999995,-3.0681986485,Ba8Nb4Cr4O24,mp-31627
1.1603,-2.2047362057142865,Mg4Pt2O8,mp-33940
2.1864000000000003,-0.9144644719999994,Ca1H1N1,mp-34932
1.3237,-2.0834726896425,Hg1Pb1F6,mp-35659
2.4818,-3.170203906151517,Na2Dy6Ti4Sb4O28,mp-40478
3.4373000000000005,-3.1684250836111105,Ta2B2O8,mp-4624
2.7156,-2.9062171299999986,Ca4Sn2O8,mp-4747
0.07509999999999993,-0.09694249749999972,Cd2Ge2As4,mp-4953
0.002299999999999969,-2.721140574871717,Cs2V4P10O32,mp-504996
2.6392,-2.081516345163185,Cs1Sb1S6O18F6,mp-505281
0.0007999999999999119,-3.9603762040322583,Ce11O20,mp-505619
0.13430000000000053,-0.2638888259999995,Ge14Ir6,mp-505780
2.0558,-2.461698478129974,Rb4V6O16,mp-510519
2.8213,-0.462020783701593,Na24B40Se72,mp-531600
4.5419,-2.6585059268320004,K4Dy8Cl28,mp-540942
1.2715,-2.1580097296875005,Ce4Se8O24,mp-541090
4.0158,-1.8911495816683623,Cs1Br1F6,mp-541226
2.2439000000000004,-2.194034903546666,Hf2N2Cl2,mp-541911
3.717000000000001,-3.1121743554764683,Rb4Nb2Si8O23,mp-542121
4.2988,-3.5265523640033334,Y2Cl2O2,mp-552120
3.1907,-2.415062388152,Ba2Bi2Cl2O4,mp-552806
2.6865,-2.7851326912067096,Si4Mo2P4O23,mp-553934