band_gap,formation_energy_per_atom,full_formula,task_id
3.9610000000000003,-3.0841661143397436,Na18Tm6Si12O42,mp-555421
4.288399999999999,-2.5418514132946437,Na4P4Pb2O14,mp-555933
3.24,-2.4435094416346153,Nd4Sb4Mo8O36,mp-556535
0.5070000000000006,-1.930169107209822,Sr3Fe2Cu2Se2O5,mp-557020
0.8719000000000006,-1.8172898470312502,Gd1Tl1S2,mp-557655
4.3671,-2.5014930142672913,Dy4Se4Cl4O12,mp-558257
2.0441000000000003,-1.3269804974166661,K2Na4Au2O4,mp-559067
5.2922,-2.723923807853572,K8Li8P16O48,mp-559142
1.4713000000000003,-1.9422006472174322,Cs4In12O20,mp-559213
5.3634,-3.0899859803140397,Ca8P12O38,mp-559537
2.8409000000000004,-3.0658069353645834,Sr4Ti4Ge4O20,mp-559957
0.0,-0.4473507341964285,Cr4Hg2Se8,mp-5602
3.8215,-2.729044053976191,Na6Ga6Si6O24,mp-560632
0.5022000000000002,-2.2392005478340518,Nd20S38,mp-560786
0.39849999999999985,-1.6634864954444437,K6Li2Ir2O8,mp-561288
4.7687,-2.9571281514937495,K8Bi4F20,mp-561290
3.33,-1.9638287709500006,K6Bi4As6O24,mp-561369
1.4685000000000001,-0.6652033132135418,K2Nb2Ag4Se8,mp-567177
0.0,-0.7083740658333335,Tb1In1Au2,mp-567210
0.0,-1.2915114200000004,La10C4I15,mp-567775
1.6263,-1.8526761282800002,Al4V2Cl16,mp-568443
0.0,-0.5381753427500001,Er1Rh3C1,mp-568727
4.0443999999999996,-1.9148523320443347,Cs6Y4Br18,mp-568937
0.0,-0.6765144559999996,Yb14Au6,mp-570119
0.0,-1.032244023269231,La10Si10I6,mp-570723
0.0,-0.7197152149999999,Ba4Au4,mp-570775
0.0,-0.23939737833333297,Al10Mo2,mp-571053
0.0,-0.639344131,Er1Ge2Ru2,mp-571296
0.0,-0.21368129181818254,V12Ga10,mp-571557
0.0,-0.3404915376666665,La4In2Cu4,mp-574369
0.0,-0.7817882674137936,Hf6Si7Ni16,mp-580744
0.22299999999999986,-2.980454922706044,Ce2P6O18,mp-5843
0.0,-0.7828179050000003,Gd4Cd2Pd4,mp-603326
0.0,-0.7127019266666679,Eu2Sb4,mp-611062
0.0,-2.7989930733928565,Ba2La1Ta1Cu2O8,mp-615682
0.0,-1.0284170933333339,Gd1Si2Rh3,mp-622508
2.2750000000000004,-2.2197446280991957,Cs6V8Te4Cl2O28,mp-624117
0.0,-0.5254283299999996,Ce10Sn6,mp-637308
0.0,-0.12734291692592592,K8In6Ge40,mp-640312
0.0,-3.050721692000001,Ba2Y1Re1O6,mp-6430
3.1599999999999997,-0.43993814275818205,Li2Mg4H14Ru2,mp-643276
0.0,-0.7662008892105256,Ho10Ge20Ir8,mp-643659
0.0,-0.4134265786666665,Tm4Ga20Os6,mp-647243
5.5152,-3.442412731791361,Ca10P6O24F2,mp-6473
0.0,-0.4296670098170738,Nd20Fe72B72,mp-650968
3.1247000000000003,-3.680555287524511,Nd4Ti8O22,mp-654139
0.0,-0.8289751900000013,Lu8Si20Ru12,mp-669402
0.9622999999999995,-0.4816160732352941,Yb2Ga12Te20,mp-676644
3.3054000000000006,-2.8525829313043483,La3Ga5Sn1O14,mp-6788
3.1704999999999997,-3.2226890047282617,K4Na4Gd8Nb4O26,mp-680381
0.0,-0.7646860985119046,Y26Sn62Pd80,mp-680706
0.0,-1.9595636985714293,Zr24S32,mp-684749
0.0,-1.0712224575757578,Ba40As26,mp-685008
0.0,-3.5962325876333328,Ca18La2Ti20O60,mp-686651
4.7346,-3.317649032740741,Ba2Na4Al8Si8O32,mp-6875
3.3641000000000005,-1.7859513215472063,Sb16H8S4O40,mp-698480
0.0,-0.3124116511899988,Fe1N1,mp-6988
0.0,-0.6481809081330816,Rb2Fe2Se4,mp-7086
0.0,-0.15597153749999926,V6Ni2,mp-7226
2.9696,-3.8121677317803044,Dy8Ti8O28,mp-752425
0.0,-1.8958776199404757,Cu4P4O16,mp-753519
3.6197,-3.9090140264772733,Er6Ta2O14,mp-756277
4.5547,-2.4550539377405878,As16H8Pb8F104,mp-758957
1.5777999999999999,-1.6724843562100848,La8H8Se24O80,mp-765350
0.43589999999999973,-2.9922176034772727,Sr16V8O31,mp-767432
1.4167000000000005,-2.2309815690476205,Li3Cr10Fe5O24,mp-771093
0.0,-0.8470130812499995,Cu16O24,mp-771359
4.4135,-2.984166414750001,Li12Hf4O14,mp-772185
0.0,-0.4624550162500003,Ba2Sn6,mp-7759
0.0,-0.48413352333333276,Sc2Al4,mp-813
3.6010999999999997,-1.8354424861566094,Rb4Te2O6,mp-8248
0.0,-0.48398874999999997,Li1Mn1Pt2,mp-861658
0.0,-0.9681801195000006,La4Si10Rh6,mp-8620
0.0,-0.4677962089583338,Pr11In9Ni4,mp-862840
0.0,-0.5380824781249993,Ca1Pm1Rh2,mp-862885
0.0,-0.4984553652777777,Lu4Al4B16,mp-8631
0.0,-0.3889327,Ca2Hg6,mp-863648
0.0,-0.18728457624999972,Mn1Zn1Ir2,mp-864985
0.0,-0.6211989362499999,Tm1Cd1Rh2,mp-865206
0.0,-0.6027957275000002,Dy2Ir1Ru1,mp-865219
0.0,-0.04482153666666614,Tm4Mg2,mp-865323
0.0,-0.1987759212500002,Tm2Mg1Os1,mp-865361
0.0,-0.19423031749999975,Y2Co2,mp-865373
0.0,-0.7402304459999997,Tm4Mg2Ge4,mp-865403
0.0,-0.6299142316666666,Lu2Ag1Au1,mp-865445
0.0,-0.6136187968749995,Nd1Pb1Au2,mp-865597
0.0,-0.06040038562499994,Co2Re6,mp-865960
0.0,-0.5741409981250001,Yb1Sm1Hg2,mp-866020
0.0,-0.42125266749999923,Be2Rh1Au1,mp-866024
0.0,-0.349258432500001,Hf1Tc2W1,mp-866114
0.0,-0.31688564583333356,Y1Mg1Ag2,mp-866162
0.0,-1.751380682508681,Ce6Ag2Ge2S14,mp-866604
0.0,-0.6040199887500011,Eu1Sn1Au2,mp-867138
0.0,-0.3586655125,Tb2Hg6,mp-867288
0.0,-0.520271317625,Tl1Cu2S2,mp-8676
0.0,-0.0859530193750011,Re2Rh6,mp-867865
0.0,0.0,Be2,mp-87
3.0655,-2.360280053720239,Sr3Ge12O27,mp-9380
1.2727000000000004,-0.9465376489999997,Ca1Mg2As2,mp-9564
0.0,-0.5702340732407392,La2B8Ir8,mp-9596
0.0,-0.6567578825000009,Yb2Si4Ni2,mp-972406
0.0,-0.0330978329166669,Re4C2,mp-974437
0.041600000000000026,-2.6121426419044442,Li4Ru2F12,mp-976955
0.0,-0.4578134400000007,Pm2Zn1Ga1,mp-977546
0.0,-0.48354759874999864,Zr1Sc1Os2,mp-977550
0.0,-0.02163553166666669,Li5Mg1,mp-981935
0.0,-0.49720980593749964,Nb4Al2C2,mp-996162
0.0,-0.06457558000000052,Pd3Au1,mp-999298
0.0,-0.8106232187500009,Nd2Au2,mp-999338
1.8434,-1.707706730421875,Na1Y1Se2,mp-999448
0.0,-2.6989448301136374,Y4Fe4O14,mvc-3489
0.0,-1.2532494413541653,Hf4S2,mp-10000
0.0,-0.5976691923214297,Fe4P4,mp-1005
0.851,-0.47702779285714314,Mg1Be2P2,mp-1017628
0.0,-0.11698420833333383,Zr2Cd1,mp-1018104
0.0,-0.22983267687500053,Gd1Fe1C2,mp-1018176
0.0,-0.45997612499999985,Ce2Ga2,mp-1018276
0.0,-0.598976394047618,Co2P2Pd2,mp-1018673
0.0,-0.7780778157142851,Li1Ce1Cu2P2,mp-1018784
0.0,-0.41544452959183686,Zn1P1Pt5,mp-1025272
0.0,-0.5546898722916671,La2Si4Ag2,mp-1025390
0.0,-0.6791341664999997,Sm2Si6Ni2,mp-10283
1.2165999999999997,-1.48956486369,Sr2Zr2N4,mp-1029275
0.0,-0.9645128160200004,Sr6W2N6,mp-1029655
0.0,-0.8741778808333329,Yb4Si4Ir4,mp-10569
0.0,-0.46807441399999944,Eu1Ge2Au2,mp-1068398
0.0,-0.3665526399999999,Ca1Cd1,mp-1073
0.0,-0.23521853416666616,Mg4Si2Cu6,mp-10746
0.0,-0.6175497887499999,Ce1Al4Si2Rh1,mp-1078224
0.0,-0.6466190279999999,Pr2Ni4Sb4,mp-1078736
0.0,-0.6902318638888877,Hf3Sn3Ir3,mp-1079038
1.8136999999999999,-1.7792904746424998,Li1Au1F6,mp-1079483
0.0,-0.869143721875,La2Ge4Rh2,mp-1079894
0.0,-0.8417919616666659,Lu3Sn3Ir3,mp-1079958
0.0,-0.19173949899999912,Sn8Ir2,mp-1080586
0.0,-0.9262886733333333,Sc3Si3Ru3,mp-1080715
0.0,-0.6579241331250003,La2Ni2Sn4,mp-1084757
0.0,-0.8647974600000001,Tm2Te6,mp-1087512
0.0,-1.0286167299760003,Nd3Sn1N1,mp-1094085
0.0,-0.643323455,Dy2Ga4Ni2,mp-1095135
0.0,-0.5240948258333332,Sm3Cd3Ga3,mp-1095197
0.0,-0.8041888562499997,Er2Cu2As4,mp-10993
0.0,-0.7912493662499998,Tm2Cu2As4,mp-10994
1.0391999999999997,-1.5748873584635419,Ba2Er2Cu2Se6,mp-1101781
0.0,-0.38702436833333326,Zr4Cu4Sn4,mp-1101867
0.0,-1.2123522991666664,Lu4Si4Pt4,mp-1101919
0.0,-0.6580856508333331,Er4Ga4Ni4,mp-1102207
0.0,-0.8126084033333333,Ce4Ga4Rh4,mp-1102417
0.0,-0.6135995925,Ca4Mg4Pd4,mp-1102662
0.0,-1.1506483815476198,Nd4Ni4P4,mp-1102901
0.0,-0.7948200083333331,Ho4Al4Au4,mp-1102992
0.0,-0.9030838866666665,Tm4Ga4Pd4,mp-1103022
0.0,-0.8486700305555566,Ti4Si4Pd4,mp-1103162
0.0,-0.7083909135714285,Ca10Pt4,mp-1103570
0.0,-0.5601156567857137,Sm10Ir4,mp-1104500
0.0,-0.6432332771428574,Yb3Ga9Pt2,mp-1104517
0.0,-0.8914054557142858,Eu8Bi6,mp-1104641
0.0,-0.443628161875,Ca12Pd4,mp-1106061
0.0,-0.637125657,Ho14Rh6,mp-1106336
0.0,-0.957725500588235,Er4Ge6Rh7,mp-1106353
1.7497000000000003,-2.647602412405379,Cs2Na1Rh1F6,mp-1111979
0.0,-2.4926116632318616,Cs2Rb1Lu1Cl6,mp-1112515
1.7856,-1.8270390216473793,Cs2Na1Tl1Cl6,mp-1112527
5.126200000000001,-2.5124156009973797,Cs2K1Lu1Cl6,mp-1112760
0.0,-1.1099399742857148,Nd4Te10,mp-1119
0.0,-0.27778622583333323,Sc1Ag1,mp-11237
0.0,-0.04433302500000025,Co6Mo2,mp-1139
0.0,-0.42685226249999975,Sc1Hg1,mp-11471
0.0,-0.3401049650000007,Tm1Ni5,mp-11526
0.0,-0.8813638333333339,Ti6Si6Ru6,mp-11560
2.7836999999999996,-1.8362196942213889,Na1Co2H3S2O10,mp-1173715
4.347,-2.0798355798936847,K2Mg1Mo2H4O10,mp-1181784
0.0,-0.06222493625000025,Ag6Pd2,mp-1183206
0.0,-0.06918734000000093,Cu1Pd3,mp-1184119
0.0,-0.5419455299999996,Gd2Ru1Rh1,mp-1184387
0.0,-0.408912396666667,Ho2Ag1Hg1,mp-1184691
0.0,-0.40120820874999996,Ho1Tm1Ru2,mp-1184831
0.0,-0.6581025035000003,La1Si2Au2,mp-11859
0.0,-0.3440969599999999,Mn1Be1Ir2,mp-1185986
0.0,-0.2161331949999994,Nb2Mo1Ru1,mp-1186206
0.0,-0.39237809333333384,Pm2Zn1In1,mp-1186506
0.0,-0.738121545000002,Tb1Gd1Ir2,mp-1187524
0.0,-0.4105151925000001,Tm2Al1Ru1,mp-1187586
0.0,-0.3357794708333337,Tm1Lu1Ag2,mp-1187611
0.0,-0.22358177499999954,V1Ga1Os2,mp-1187713
0.2530999999999999,-0.021540869799999692,Tb1Mg149,mp-1188078
0.0,-0.8825555787500008,Nd4Al4Pd8,mp-1188755
0.0,-0.4038502918333336,Mg4Cr2B4Ir10,mp-1189317
0.0,-0.7016286262499998,Tm10Si6,mp-1189863
0.0,-0.6592288038888875,Tb4Si8Mo6,mp-1190079
0.0,-0.5897108156944443,Dy4Re4B16,mp-1190368
0.0,-0.3011045556249998,Mn4V4Ga4Co4,mp-1190398
0.0,-1.2714265326302083,Nb6S18,mp-1190583
0.0,-0.6209689816666663,Hf16Rh8,mp-1190626
0.0,-0.65735414875,Li8Sm8Sn8,mp-1190768
3.7859,-2.665618855416666,Li2Y2W4O16,mp-1191085
0.0,-2.100657258750002,Eu4Pt4O14,mp-1191889
0.4359000000000002,-0.9563598952586203,Cs6Nb4I18,mp-1192748
1.7612999999999999,-2.49446153875,Ba4Sm8S16,mp-1194376
3.3198,-2.5278913132954557,Ba8As8O28,mp-1194732
0.6305000000000001,-1.0881016622187503,Cu4Hg4Se8O24,mp-1194904
0.0,-2.3941627130833334,Sr12Ca4Ir8O36,mp-1195131
4.3677,-2.9330357225031474,Ba8Na2Ga4B16Cl6O36,mp-1195176
2.3493,-1.994146786814263,Cs4Cr4As8O28,mp-1195248
0.0,-0.7224187558333328,Sc8Si16Mo12,mp-1195505
0.7357,-0.9957118987499999,Ba24Ga8As24,mp-1195592
0.0,-0.504583303796295,Er4B16Ru16,mp-1196250
2.1672,-1.2346463329449995,Cs6Hf4P10S36,mp-1197320
0.0,-1.3213603338541675,Zr24S12,mp-1197374
0.0,-0.06099579091836712,Cd41Ir8,mp-1199295
0.0,-0.4328776314999999,Ca6Sn26Ir8,mp-1200211
0.0,-0.48775114712499956,Sm6Sn26Ir8,mp-1200898
2.0604999999999998,-1.039187609189964,Cs12Bi8P12S48,mp-1200951
2.3095,-2.4725165228813997,Cs4Nb6Cl14O10,mp-1201406
0.013100000000000556,-0.46223490085784347,Tb16Ni80B40,mp-1201581
0.0,-0.5938478788888896,Gd8B24Os4,mp-1202304
0.0,-0.2919177402499997,La28Ru12,mp-1202486
3.5511,-1.407044859575161,Al2H24N6O30,mp-1203296
2.1608,-2.2954424956845236,Re12P12O72,mp-1203700
0.0,-0.10605673641304338,La2Cd40Ni4,mp-1204376
0.0,-0.7764877439781736,La5P12Ir19,mp-1204383
1.9834999999999994,-1.3858676127500003,Ni18Te10Pb12O60,mp-1204674
0.0,-0.5884847324999996,Nd20Pb16,mp-1204902
0.0,-0.5182176737499986,Ho2Mn4Si2C2,mp-1205720
0.0,-0.4625404907499998,Y2Re4Si2C2,mp-1205734
0.0,-0.716789808,Tb4Mg2Si4,mp-1205816
1.3202999999999998,-1.7819692924415327,Cs2Tc1Cl6,mp-1205840
0.0,-0.7993611750000007,Dy4Ge4Ru2,mp-1205905
0.0,-0.6961668633333333,Tm3Mg3Pd3,mp-1205919
0.0,-0.6392794783333334,Y2Sn2Ge2,mp-1206177
0.0,-0.4203874109523805,Gd1In5Rh1,mp-1206181
0.0,-0.28130256700000017,Nd2Ga1Co2,mp-1206412
0.0,-0.6468870080555552,Sm3Ag3Ge3,mp-1206436
0.0,-1.2272024859635415,Li1Ti1Se2,mp-1206595
0.0,-1.1199605508200012,Zr10Si6N2,mp-1207408
0.0,-0.9782934525,Tb4Si4Pd8,mp-1208310
0.0,-0.4545798979166668,Tb16Cd4Pd4,mp-1208476
0.0,-1.006692457222222,Pr10Bi6Br2,mp-1209360
4.0698,-1.869380754148707,Rb8Sm4Br20,mp-1209518
1.4227,-1.240420251061787,Rb8Fe4H8Br20O4,mp-1209552
0.23570000000000002,-0.4509218254166676,Pd24Se16S8,mp-1209912
0.0,-0.4456882616666669,Nd16Cd4Ir4,mp-1209983
0.0,-0.34789079416666685,Nd16Mg4Rh4,mp-1210030
0.0,-0.3387959257692303,Lu2Al20Fe4,mp-1210893
4.71,-3.614682238333334,Li4Tb24B12O56,mp-1211079
1.5176000000000003,-0.10143719907142845,K2P30,mp-1211471
0.0,-0.9063665546911197,Pr16Ni36P22,mp-1211698
3.1593999999999998,-2.0522945729083335,K24Mo6O30,mp-1211821
0.0,-0.13038045683333407,In14Ni6,mp-1212307
3.0838,-2.8776411907954556,Gd4Al4Ge8O28,mp-1212574
0.0,-1.420105561785714,Gd12Si4Br12,mp-1212738
0.0,-0.7499002200000001,Er4Zn4Rh4,mp-1212903
0.0,-0.40228083723214275,Er5Re2C7,mp-1213155
0.0,-1.0095559025000007,Er10Sb2Pt4,mp-1213201
1.2292,-2.0488760066748593,Cs2Zr12Mn2Cl28,mp-1213469
0.22609999999999975,-1.2219265032614939,Cs4Pr24Fe4I40,mp-1213658
0.0,-0.5784720494897958,Ce2Zn6P6,mp-1213847
4.4416,-3.404679528750001,Ca4Y1B3O10,mp-1214020
3.8533,-3.326722392942709,Ba18Er6B18O54,mp-1214885
0.0,-0.3494053472413794,Al2Ni21B6,mp-1214897
0.0,-0.5305541874193547,Zr4B15Ir12,mp-1215396
0.0,-1.0662037712499997,Yb4Pt3Au1,mp-1215710
0.0,-0.3431882892307691,Y1Al7Cu5,mp-1216017
0.0,-0.08849621222222244,Ti4Cu1Ag1,mp-1217098
0.0,-0.29076827652777953,Ti16Co4Ni4,mp-1217247
0.0,-0.1632669549999998,Tb2Fe1Co3,mp-1217710
0.0,-0.18025968333333253,Ta4Cr4Co4,mp-1218022
0.0,-0.47879551249999963,Sm1Zn2Ga2,mp-1219174
0.0,-2.667652967498314,Rb2Cr2Cu2F12,mp-1219603
0.0,-0.6424382209999997,Pr2Ga5Au3,mp-1219847
0.0,-1.0127938791666662,Nd2Ge2Pt2,mp-1220139
0.0,-0.6974002471428571,Nd2Cd1Sb4,mp-1220339
0.0,-0.17099067833333356,Nb4V4Ni4,mp-1220599
0.0,-0.8935797071166661,K1Nb6Se8,mp-1223754
0.0,-0.43187973277777775,Hf3Ti1Te20,mp-1224556
0.0,-0.2521411295833313,Gd2C1,mp-1224869
0.0,-0.42395496266666655,Eu2Ga7Ag1,mp-1225364
0.0,-0.7786388016666669,Er2Ga2Au2,mp-1225586
0.0,-0.8574742540234377,Cu4Bi3Pb1Se4O4,mp-1225836
0.0,-0.14312694250000035,Eu2Cu5Ni5,mp-1225966
0.0,-0.49600966357142895,Ce2Zn1Bi4,mp-1226818
0.0,-0.1147878766666673,Be9Cu3,mp-1227357
0.0,-0.16324188531249995,Ca4Al1Zn43,mp-1227673
0.0,-0.45701702583333326,Ca2Tl1In1,mp-1227698
1.5476000000000003,-1.684316641535715,Ba4Na4V4S16,mp-1227892
0.013100000000000112,-0.4797538732463769,K76Nb14As48,mp-1228670
3.1474,-2.87495537825,Ba6W2O12,mp-1228775
0.0,-1.8299783352083334,Eu4S8,mp-1232155
2.5452999999999997,-1.303678765816072,Na2Er2P4S12,mp-12384
0.0,-0.9949610188771416,Sr6Cr2N6,mp-12906
0.0,-0.39124791100000067,Er1Al2Ge2,mp-13069
0.0,-0.2532989783333323,Mo2As4,mp-1337
0.0,-0.3056369125000007,Pr1Mg1Ni4,mp-13436
0.0,-0.8810090324999997,Tb2Ge2,mp-1405
2.002,-2.0898707590561236,As4P4O20,mp-14367
0.0,-0.6533625750000001,Al1Ni1,mp-1487
0.0,-0.3234844873863639,Lu8C14,mp-15178
3.8756000000000004,-1.9916722038519736,K8Ni8S12O48,mp-15598
0.45840000000000014,-1.2246736316666673,Ho1Sb1Pt1,mp-16376
0.0,-0.5673168925000001,Zn2Pd2,mp-1652
0.8552999999999997,-0.45585154999999844,Si24Os16,mp-16608
0.0,-0.5846489049999999,Pr4Mg4Rh4,mp-16646
0.0,-0.3578925427777777,Er3Ag3Pb3,mp-16745
0.0,-0.3826219593719214,Cs2Te14Mo12,mp-18193
0.0,-0.5670426500000003,Ca2As6,mp-1900
0.24750000000000005,-2.8025025175000002,Ho2Cr2O8,mp-19076
0.0,-3.100907501108666,Er6Mn6O18,mp-19217
3.3293,-1.706732505000001,Tl4W2O8,mp-19341
0.0,-0.47941549000000094,Er2Ni4,mp-1939
0.015500000000000291,-0.277737838076923,Sc1Fe6Ge6,mp-19739
0.0,-0.8332073541666674,Dy4Si4Ru4,mp-19873
0.0,-0.19065745083333363,Mg1In1Ni2,mp-19929
0.0,-0.259026620833333,Mn4Ni4Ge4,mp-20007
0.0,-1.8093273891666666,Na5Os1O6,mp-20067
0.0,-0.33652371568181844,Sm1Sn6Ru4,mp-20208
0.0,-0.7108913572222223,Ti4Ge4Pd4,mp-20268
0.0,-0.6837665526302077,Nb1In1Se2,mp-20279
0.0,-0.8338696686666666,Sm4In2Pd4,mp-20404
0.7991000000000001,-2.1788282297500006,Sr4Pb4O12,mp-20489
0.0,-2.15991271155,Ba6Na2Ir4O18,mp-20529
0.0,-0.5227172397916666,Nd2In4Ir2,mp-20914
0.0,-2.9527551703125,Eu2S1O2,mp-21071
0.0,-0.9429500093750001,Hf1C1,mp-21075
0.0,-0.777772382222223,Eu2Ag2As2,mp-21330
0.0013999999999994017,-0.5759451749999988,Ce2Co2Ge2,mp-21339
0.0,-0.598545495000001,Gd2Cu2Sn2,mp-21436
0.0,-0.3744556008333338,Ba3Pb9,mp-21446
0.0,-0.07967203000000112,Co6W2,mp-2157
0.0,-0.5580107303125006,Ce20Ge8Ru4,mp-21651
1.5189999999999997,-0.48905114749999967,Al1As1,mp-2172
0.0,-0.4879252091666662,Dy4Co4Sn4,mp-22228
0.0,-0.6389407274999996,Pr4Zn4Sn4,mp-22293
0.0,-1.396064005,Ce6Te8,mp-22422
0.0,-0.36206893816666624,Na2Pt4,mp-2271
0.0,-0.36150207291666686,Lu2Co2C2,mp-22714
0.0,-0.2732426546323527,Co9Se8,mp-22745
4.3111999999999995,-3.01154748373,Sr2I2F2,mp-23046
0.0,-0.4289868177777774,B4Mo2,mp-2331
0.0,-0.09988359125000024,Ti6Hg2,mp-2354
3.6220999999999997,-1.6789645940601414,Rb6H2Se4O16,mp-23897
0.0,-0.11476495666666657,Ca4Mg8,mp-2432
4.6505,-1.8396568577203847,Zn2H4S4O16,mp-24502
4.7782,-2.532943812277778,Zr4H12N4F16,mp-24508
0.0,-0.10078175416666646,Sr4Mg8,mp-2572
0.0,-0.16393796222222237,Ta5Sb4,mp-2598
0.0,-0.8082357418750004,Zr6Rh10,mp-2626
0.0,-0.652405501363636,Ca18Zn8Bi18,mp-27262
0.37849999999999995,-0.9331782567413789,Cs4Cu4Br12,mp-27336
1.3426,-1.684035604524286,K6W4Cl18,mp-27506
0.0,-0.9050299925000003,Sc1Pd1,mp-2781
1.8089,-0.9611797600833333,K4Tl4Br16,mp-28048
1.2875999999999999,-1.1669702715962496,Ca6C6Cl4,mp-28160
0.0,-0.3242844565277778,Ca10Ni30B8,mp-28170
2.2814000000000005,-1.2047300864866077,Na6P2S8,mp-28782
0.7152000000000001,-0.18519976833333335,Hg32Sb16I24,mp-29043
2.4326000000000003,-1.8847393383223678,Nb4Se8O26,mp-29193
1.5012999999999999,-2.1013105908035725,P8Pt4O28,mp-29282
3.7464000000000004,-0.17041763920152814,Si16H48Se8,mp-29310
2.0197000000000003,-1.2738939897083335,Na10In2S8,mp-29376
1.8636000000000001,-0.38695789500000033,Al2Te2I14,mp-29407
0.49849999999999994,-1.0069299996982763,Rb8Zr4Te12,mp-29603
0.49140000000000006,-1.5942794253500001,K12Bi12O36,mp-29799
3.3017999999999996,-2.2856012286029417,Pr4Te8O22,mp-2980
0.0,-0.4317678784353741,Ni30Sn3P9,mp-29885
0.0,-1.6313716333436359,La3Ta2N6,mp-29964
2.92,-2.0621854631749996,Na16Mo4O20,mp-29984
1.2812999999999999,-0.9131611386373332,Be4Te14Cl12,mp-30096
1.3186,-1.2338050721759097,Zr4Se16Cl24,mp-30113
3.0665,-1.6530551365633621,Cs2Sn4Cl10,mp-30164
0.0,-0.6730960360000002,Sr9Au6,mp-30421
0.0,-0.2968131437499997,Nd1Zn5,mp-30801
6.118099999999999,-3.373294208214285,Be4Al8O16,mp-3081
0.0,-0.17281931384615382,Y1Zn12,mp-30886
1.8161999999999994,-2.432022878125,Al2Cu2O4,mp-3098
1.3799000000000001,-1.459559380178333,As2I10F12,mp-31020
0.0,-0.17077322732142822,Pr8Mo8C12,mp-31225
0.0,-0.633685983947368,Ca8As14Ir16,mp-31234
0.0,-0.27948302187499996,Li2Sn8Au6,mp-31301
0.0,-0.680226454999999,Ho1Fe2Si2,mp-3191
4.2949,-2.6487695151494814,Zr4P6H8N2O24,mp-39770
0.0,-0.6189843282500002,Na2Si4Pd6,mp-4276
5.8816,-3.524698034523809,Tb2P2O8,mp-4340
3.6802,-2.9391700151249998,K1Pr1O2,mp-4519
0.0,-0.8938555659999992,Y1Ge2Rh2,mp-4889
0.0,-0.7886109137500004,Tb2Co2Si4,mp-4969
0.0022999999999999687,-2.9099127699999996,Ba2Eu1Re1O6,mp-504674
0.0,-0.6205944023611115,Gd4Mn4B16,mp-505546
0.1993999999999998,-4.3212844425591665,Ce6F18,mp-510560
0.0,-1.7916325805859374,Eu2Cu2Se2O2,mp-510596
0.0,-0.43689212766666685,Zn10B6Rh14,mp-510697
0.0,-0.5284303958333331,Ca4Ga4Ge4,mp-541310
0.0,-0.756942175833332,Sc4Mn2B4Rh10,mp-542022
0.0,-2.890264719003335,Eu2Cl2O2,mp-542757
4.8328999999999995,-2.740595193945186,Cs4Sc4P8H8O32,mp-543046
0.28059999999999974,-1.2425726686671439,Ba2Mn2As2O1,mp-550454
0.0,-2.205727289709935,K4Zn2Cu6P6O24F2,mp-556333
1.9066999999999998,-1.2324665164747377,K8Pd4N16O48,mp-556518
2.2584,-2.9517583411989796,Nb4P4O20,mp-556918
5.0786999999999995,-2.7024555546092133,Na10B4P6O26,mp-557836
3.2938,-2.5172530457447833,Na12B24N4O52,mp-558548
1.6000999999999999,-1.4166842212451927,Na2Pd1Se2O8,mp-559068
2.8724999999999996,-2.1347939866818177,K4Zn2Ge4O12,mp-560398
2.7187,-3.383295058141667,Na2Ti4Al10O24,mp-560591
2.8373999999999997,-2.088157881056984,Zn2Co2P2H2O10,mp-561632
0.0,-0.9985636544444445,Tb3In3Pt3,mp-567413
0.0,-0.19422756413043413,Eu2Al40V4,mp-567527
1.6366000000000003,-0.7779740892241378,Rb2Cu4Br6,mp-567644
0.0,-0.33995691666666633,Yb4Ga8Ge12,mp-567831
0.0,-1.0165980203571436,Nd1P2Ru2,mp-568055
0.0,-0.3273603083333339,Y16Cd4Ru4,mp-568156
0.0,-0.699930255,Ca4Al4Au4,mp-568424
0.0,-0.6935025533333334,Yb1In1Au2,mp-568537
0.0,-0.6886616775000003,Yb2Au6,mp-568823
2.3223,-0.9168513529999999,Hf4I16,mp-569059
0.0,-1.0378910719999994,Tb1Si2Pt2,mp-569737
0.9556,-1.1459036363925725,Cs2Er2Nb12Br36,mp-569903
0.0,-0.3628423279166664,Pr1In1Ag2,mp-570683
1.8862,-1.9641665396839076,Cs4Cr12O32,mp-573422
0.0,-1.205603407831358,Cs2Ce2Hg2Se6,mp-574472
0.01499999999999968,-0.1433434683147321,Cu6P2Se8,mp-5756
0.0,-0.6477992709374991,Hf24As8,mp-582067
0.0,-0.6201344919537817,La1Fe4P12,mp-582295
2.8600999999999996,-2.1681163253645828,Li8Ge28O60,mp-5832