band_gap,formation_energy_per_atom,full_formula,task_id
0.0,-0.21442223124999948,Ta1Fe2Ge1,mp-1187225
0.0,-0.33406354124999815,Ta1Nb1Re2,mp-1187242
0.0,-0.14937225124999998,Ta1Os3,mp-1187243
0.0,-0.0031707949999999485,Y6Er2,mp-1187789
0.0,-0.24548713944444403,Li6Zn4Sn8,mp-1188187
0.0,-0.9781750960000004,Dy4Si10Rh6,mp-1188825
1.7173,-1.0662465371250003,Na4Zn2Sn4S12,mp-1190487
1.1910000000000003,-0.2790967036845457,Cr4C6N12,mp-1190798
2.5569,-2.831929910079365,Ti2P4Pb2O16,mp-1191155
0.0,-0.6769314640277777,Gd4V4B16,mp-1191160
0.0,-0.6679975831818187,Ho6Si4Ni12,mp-1191275
1.2807999999999997,-2.552761936110001,Gd2Mn2Ge4O14,mp-1191402
0.0,-0.08147588755681894,Tb2Fe17C3,mp-1191539
0.0,-0.9325528391666668,La8Si12Rh4,mp-1191810
0.0,-0.5517237327272734,Tb6Al4Ni12,mp-1191827
2.9756,-1.8211721635652718,Cs4Dy4Si4S16,mp-1193064
0.0,-0.19577810821428546,Tm2Be26,mp-1193090
0.0,-0.19437883000000003,Er2Be26,mp-1193092
0.0,-0.16245769321428583,Pr2Be26,mp-1193529
0.0,-0.43049066727272717,Hf12Sb28Pd4,mp-1195520
0.0,-0.8264735201388894,Pr5Zr3Ni16As12,mp-1196188
0.0,-3.6978921653875974,La26B8O52,mp-1196229
0.0,-0.9462441810000002,Ce4Cd2Pt4,mp-11964
1.8018999999999998,-0.6710197099573866,Al16Sb40Se48Br72,mp-1196459
0.0,-0.8502399809920631,Lu4Co20P12,mp-1196904
0.0,-0.5047336579629634,Tm4B16Ru16,mp-1197448
0.0,-0.5447379423749993,La6Sn26Ir8,mp-1197480
5.1148,-2.1727451547674757,Rb16Li4H12S16O64,mp-1198331
0.0,-0.12951667673912998,Mg6Ta4Al36,mp-1198942
0.0,-0.26760224122641557,Ho12Al86Cr8,mp-1199361
0.0,-0.729863127500001,Gd20Si16,mp-1199486
1.9869000000000003,-1.6602574165152955,Fe12Te12Cl4O40,mp-1200464
0.0,-0.2679476052830184,Er12Al86W8,mp-1200512
0.0,-0.5412977592499999,Tm24Ga16,mp-1202141
0.0,-0.41038557657608604,Hf42Re50,mp-1203605
0.0,-0.38079061722222224,Ce8Ni28,mp-1204381
0.0,-0.51573810175,Ho2Si2Os4C2,mp-1205519
2.2163,-3.115638699249999,Sr2Nb1Cr1O6,mp-1205690
0.0,-0.32782853555555547,Li5Ga4,mp-1205930
0.0,-0.6767636227777779,Er3Mg3Au3,mp-1205975
0.0,-0.5219867837500004,Tb2Si2Os4C2,mp-1206183
0.0,-0.6336755296666666,Nb4B4Mo2,mp-1206490
0.0,-0.5972868466666656,Sc6Mn1Te2,mp-1206500
0.0,-1.0843200916666664,Tb2Sb2Pd2,mp-1206527
0.0,-0.42231934916666614,Sc1In1,mp-1207100
0.0,-0.9620921168571428,Ce1P2Pd2,mp-1207218
0.0,-0.31768111166666735,Zr1In1,mp-1207380
0.0,-1.003780923333333,Y10Ge4Sb4,mp-1207728
0.0,-0.31123407437500017,Y12Ru4,mp-1207781
0.0,-0.6537493421052626,Y10Co8Ge20,mp-1207788
0.0,-0.4698944331250008,Tm10Ni4Bi2,mp-1208016
0.0,-0.6718894539285719,Tb4Ga18Ir6,mp-1208535
5.0876,-2.2272767425213633,Sr4Al8H24C8O44,mp-1208735
6.2529,-3.553239808817449,Rb6Sc2F12,mp-1209282
1.9713000000000003,-2.88088785275,Nd4Mg2Pt2O12,mp-1209786
0.0,-0.8053041114285711,Pr4Al18Rh6,mp-1209803
0.0,-0.41168222937499976,Sm6Sn26Ru8,mp-1209813
1.0769,-2.5039734956663637,Na4Co2Ni2F14,mp-1210483
0.0,-0.42035509124999965,Lu16Mg4Rh4,mp-1210733
0.0,-0.474194451527777,La6Ga24Os6,mp-1211555
2.3591,-3.409411856380953,K4La4Ti4O16,mp-1211901
3.768700000000001,-3.580598711153846,La16Ge4O32,mp-1211987
0.0,-0.7061754164285716,Ho4Ga18Rh6,mp-1212406
0.0,-0.29502565583333407,La4In4Ni20,mp-1212410
3.4595000000000002,-2.6475505936422414,Cs2Sm2W4O16,mp-1213147
0.0,-2.3944830792672405,Cs2Yb2W4O16,mp-1213149
4.4195,-2.6814980776526895,Cs4Y8Cl28,mp-1213252
0.0,-2.9971042871078435,Eu4Mg4B20O40,mp-1213294
0.0,-0.377832904736842,Dy12Ni6Pb1,mp-1213460
0.0,-0.6874514529487186,Er6Ni20As13,mp-1213480
0.0,-0.5278304557142854,Ca6Ge4Au18,mp-1214045
3.7706999999999997,-2.4857095305852996,Cs12Pr4Mo12O48,mp-1214290
0.0,-2.5230856506944446,Ba1Sm1Fe1Cu1O5,mp-1214324
3.3983000000000003,-3.23619221025,Ba3Ta2Zn1O9,mp-1214475
5.198099999999999,-2.1555386225634825,Ca8P16H40N8O56,mp-1214543
0.0,-2.7131318198214296,Ba4La2Nb2Cu4O16,mp-1214654
3.186,-2.741538034405173,Ba12Na4V4Sb4O34,mp-1214658
3.4383999999999997,-3.4077006759722224,Ba12Gd4Al8O30,mp-1214682
0.0,-1.1851749410937495,Ce24C16Br24,mp-1215059
0.0,-0.12134730730769351,Zr1Mn6Ga1Sn5,mp-1215316
0.0,-0.25953988560606106,Zn6B5Ir11,mp-1215752
0.0,-0.4004085024999995,V6Si1Ge1,mp-1216453
4.3980999999999995,-1.2769205699415003,Tb2H36Br6O36,mp-1217606
0.0,-0.29711999299999975,Sr1Zn1In3,mp-1217777
0.0,-2.650548921,Sr1La1Fe2O6,mp-1218237
0.0,-2.6128346692857147,Sr4Fe1Ru1O8,mp-1218399
0.0,-0.5827938791666666,Sm2Ga3Cu1,mp-1219137
0.0,-0.07474711657894773,Sm2Fe4Co13,mp-1219231
0.0,-0.1846514737499998,Re1Ir1,mp-1219533
0.4275,-1.4324487560938701,Rb1Na1Cd3O4,mp-1219559
0.0,-0.42379253833333347,Pr2Al2Zn2,mp-1219678
0.0,-0.2866861578461538,Sr21Hg109,mp-1219820
0.0,-0.2617873462500005,Nd1Cu1Ni4,mp-1220204
0.0,-1.645031381488519,Mn2Ni10B4O20,mp-1221366
0.0,-0.17836717166666638,Mn1Be4Al1,mp-1221618
1.8016999999999999,-2.1390941276562505,Li1Sm1S2,mp-1222296
0.0,-0.2599897407692315,Lu1Fe10Si2,mp-1222514
0.0,-1.1921198906818182,La4C2I5,mp-1223222
0.0,-1.283961147750001,La1Ce1Mo12S16,mp-1223576
0.0,-0.5748892291666662,Hf4Fe6Si2,mp-1223824
1.2873999999999999,-1.8393015854166668,Fe1Sb3Pb4O13,mp-1224890
0.0,-0.7492590960000008,Eu2Si4Pd3Au1,mp-1225277
5.1015,-2.4898385165223793,Cs8Na4Y1Ho3Cl24,mp-1226101
0.0,-0.48057379187499993,Ca4Cd3Au1,mp-1227562
0.0,-2.6877882887052107,Cs2Cr2Cu2F12,mp-1228892
0.0,-1.8389716530468752,Pm1Se1,mp-1232234
0.0,-0.40456275500000016,Li1Tl1Pd2,mp-12716
0.0,-0.2970782362499982,Si2Mo6,mp-1275
0.0,-0.7423800483333336,Yb4Zn4Pd4,mp-13025
0.0,-0.6479197762500002,Y2Al4Ni2,mp-13094
0.0,-0.7719284081250004,Sm2Co2Si4,mp-13478
0.0,-0.6511985654545446,Sc2Si14Rh6,mp-13619
5.7433000000000005,-2.949038726909722,Mg8B32O56,mp-14234
0.0,-0.5806601983333337,Y6B14W2,mp-14373
0.0,0.0,Ho2,mp-144
3.3411999999999997,-1.9416481008257704,Rb8Ni8Mo12O48,mp-14529
4.6983,-3.252794526098901,Ba8Mg4P8O32,mp-14558
0.0,0.0,V1,mp-146
0.0,-0.7330698356666673,Y2B4Ir4,mp-14622
0.0,-2.5641512347499997,Sr4Ca2Ir2O12,mp-15002
0.0,-0.0551644699999998,Tm1Mg1,mp-1505
0.5375000000000001,-0.40504488413793105,Rb4As6,mp-15556
0.0,-2.0985637877675,Cd1Rh1F6,mp-15638
0.0,-0.5713767266666666,Ca4Mg4Ge4,mp-15641
0.0,-0.8294077949999998,Hf1Al1Pd2,mp-16501
0.0,-0.4959725959090907,Tm2Al14Au6,mp-16627
2.8506,-2.5850758273301637,Be6Cd8Si6Se2O24,mp-16793
0.0,-0.7914400675000011,Y4Si10Ni6,mp-16914
0.0,-0.17075259142857085,Mn2Al12,mp-173
1.2610000000000001,-0.37801065822769586,Cs12Na8Sn4P12,mp-17707
0.0,-2.2434022275565906,Mn4Hg4S2F12,mp-17745
0.0,-2.913269581477273,Yb4V4O14,mp-18797
3.039,-2.8161959669444454,Al6V6O24,mp-18827
0.0,-1.1266497593750007,Co1Pt1O2,mp-19210
0.0,-0.273105124583334,Pr3In1,mp-19764
0.0,-0.5846525649999998,Sn2Pt2,mp-19856
0.0,-2.6429443835000015,Eu2Te1O2,mp-19897
0.0,-0.1872431812500004,Ni6Sn2,mp-20112
0.0,-0.2649845375000002,Ga12Co4,mp-20559
0.0,-0.34769083611111107,Ho4In2,mp-20686
0.0,-0.5614002103361349,Eu1Fe4P12,mp-20856
0.0,-0.46596383305555555,Nd2Ag2Pb2,mp-20880
0.0,-0.5521281274999996,Sr2Pb2,mp-21093
0.0,-0.7992235524999991,Hf1Ir3,mp-2126
0.0,-0.13513857700000004,Pt2Pb8,mp-21296
0.0,-0.6348032300000005,Tb2Fe2Si2,mp-21363
0.0021999999999997577,-2.8699072772500003,Ba2Eu1Sb1O6,mp-21370
0.0,-0.8511071250000004,Gd1Pd3,mp-21427
0.0,-0.4422269807692312,Tb2Si4Ni20,mp-21601
0.0,-0.9258630574999991,Ho1Rh1,mp-2163
0.0,-0.7364872398809518,Ta24P12,mp-22477
0.0,-0.8151900660416675,Rh4S8,mp-22555
1.5490000000000004,-3.310431765750001,Dy4V4O12,mp-22789
1.3678000000000001,-0.28453673833333326,Ag1I1,mp-22925
1.9974000000000003,-0.7638793663541664,Bi4S4Br4,mp-23324
3.7821000000000002,-1.8860543396393332,Na6In2Cl12,mp-23503
0.0,-0.24865762473684216,Zr2Be17,mp-2544
0.0,0.0,La4,mp-26
2.7500999999999998,-0.6026698895008115,P16S28,mp-2650
2.8588999999999998,-2.211364865833333,Sr1O2,mp-2697
1.6656999999999997,-1.793176637142857,Ca3As1Br3,mp-27294
2.7134,-1.510872425402299,Cs6Mn2Br10,mp-27332
4.5508,-2.0357882320135876,K8S20O64,mp-27792
2.8452,-0.88007047769,Sb2S16Cl6,mp-28064
4.7762,-2.650385020883,K4As8F28,mp-28085
3.2217000000000002,-2.2520764992361118,Ba6Te8O22,mp-28102
0.0,-0.3093956530263157,Ni44As32,mp-28227
0.0,-0.9554860596875017,Gd4C2Br2,mp-28522
0.0,-1.2262993680025005,Gd2C1Cl1,mp-28638
1.4014,-0.23481730524305572,Pd1Se2Br6,mp-29496
0.0,-1.3249032066177786,Tl2W1Cl6,mp-29556
0.0,-0.7838708433333338,Y1B1Rh3,mp-29725
0.732,-1.765314137382308,Li2Nb12Cl38,mp-29985
4.374499999999999,-0.8801115311814292,Si4C2N8,mp-30161
0.0,-0.555535230666667,Tb2Ni4B4,mp-30333
0.0,-0.06435178499999994,Mg2Cd6,mp-30491
0.0,-0.5164357692499998,Sr6Sn26Rh8,mp-30517
0.0,-0.262654165,K20Hg28,mp-30718
0.0,-0.3557398833333344,Nb5Te4,mp-30797
0.0,-1.5272949551618185,La3V2N6,mp-31054
0.0,-1.3473652764705883,La6Os1I10,mp-31322
0.0,-0.7486881300000002,Y3In3Rh3,mp-31347
0.0,-0.8248741050000005,Y2Zr2Sb2,mp-31438
2.1562,-3.18208021975,Ba8Ta4Cr4O24,mp-31630
0.0,-0.46034787399999927,Eu1Si2Cu2,mp-3412
3.7676,-2.780389894614,Na4Zn4F12,mp-3795
0.0,-3.4730793343125015,Ce2S1O2,mp-3972
0.0,-0.4354761662499991,Mn1Co2Si1,mp-4492
0.0,-0.30328763916666723,Ti1Al1Cu2,mp-4771
1.0584999999999996,-0.36312137225446406,Tl12Sb4Se12,mp-4876
0.10160000000000036,-1.1685082143750005,Co1Cu1O2,mp-504711
2.8857999999999997,-3.9127786740000006,Gd16O24,mp-504886
0.0,-0.3901396757499995,Ta12Si4Te24,mp-505206
0.3684000000000003,-3.199902845984849,Eu6B4O12,mp-505346
0.036399999999999544,-0.3470497114285718,Ca2Ni8Sn4,mp-510484
0.0,-1.0152480600000002,Lu1Sb1,mp-516
0.0,-1.0170786048571423,Dy1Ni2P2,mp-5227
0.9971000000000001,-2.2068500789375007,Ba4Zr4S12,mp-540771
0.0,-3.2628202222500007,Gd4V4O12,mp-541177
2.1584999999999996,-1.0708202802020004,Sr8Li12Ta4N16,mp-541569
0.0,-0.7300088042121646,Rb12Fe8Se16,mp-541963
0.0,-2.8216874151736118,Eu4S2O12,mp-542297
0.47740000000000027,-2.732690700700001,Na2Pr4Ru2O12,mp-542512
4.9085,-2.8761273735213972,Cs8Al4P12O40,mp-542656
0.0,-0.4026019769999998,Ca1Si2Cu2,mp-5486
0.0,-2.6832085760603173,Na16Mn8P8O32F8,mp-556404
2.3762,-2.3516652019791073,Cd8P4O16F4,mp-557910
3.6369000000000002,-3.1424952177500005,Sr4Ho2Sb2O12,mp-558039
4.4518,-2.866690991866884,Sr4Zn4P8O28,mp-558616
2.3710999999999998,-1.946567703933189,Ca6Fe4Se12O36,mp-560990
2.7864,-1.9532002563126967,Rb8Cr8O28,mp-561093
0.0,-2.097685691691282,Ti4Nb12Cl28O8,mp-561357
0.24829999999999997,-0.3757669729166666,Cr4Hg24As16Br28,mp-567329
0.0,-0.1309049533333336,Mg8Ga16,mp-567539
0.0,-0.2649182734545457,K1In6Au4,mp-567545
0.0,-0.7571963069047618,Yb2Co12P7,mp-567602
0.0,-0.4507739824264706,Nd46Cd8Rh14,mp-567916
0.0,-1.1804565219666667,La16C16Cl10,mp-568190
0.0,-1.2375136547499999,K4Pr24Os4I40,mp-568343
0.0,-0.2658310423239435,Ce26Zn116,mp-568360
0.0,-0.21471422857142844,Ni2Sn4Au1,mp-568925
0.0,-0.6524382657499999,La8Ni8Sb24,mp-569538
0.0,-1.5088553972614815,La3B2N4,mp-569935
2.4964999999999997,-0.8454596970833335,In2Br6,mp-570219
0.0,-0.45629722666666694,Ca6Cu6Sn6,mp-570879
0.0,-0.7989911499999995,Yb6Sn6Au6,mp-570947
2.919,-0.3147120347467123,Cs6Mg6H18,mp-571020
0.9565999999999999,-0.750121298116072,Cr4Cu4P8S24,mp-572465
0.0,-0.3745162579999999,Yb1Al2Ga2,mp-573498
0.0,-0.5039765091666671,La3Ga2Ni4,mp-573548
0.0,-1.4070154650000006,Gd1Te1,mp-574283
0.0,-0.6748469755555564,Gd3Mg3Au3,mp-580154
3.6268000000000002,-2.6286689115463147,K2Mn12P14O48,mp-5997
0.0,-0.6535664125,Nd8Zn8Rh8,mp-607721
0.0,-0.3893524485688406,La6Co58Si8B20,mp-6084
0.0,-1.5705317530357155,Eu2P1Br1,mp-613052
0.0,-0.7203008927777772,Pr3In3Au3,mp-621132
0.9063000000000001,-0.6827946955311113,Tl4Hg12As8Cl12,mp-628647
0.0,-1.0237990511426673,Gd3In1N1,mp-637378
0.0,-0.5612348325862072,Hf6Fe16Si7,mp-640158
2.6212,-2.08343159925,Na4Zn2Ge2O8,mp-6402
2.0401000000000002,-1.5875455609583333,K80In16O64,mp-667326
0.0,-0.418514852723214,Ta20Au4S4,mp-669370
0.2054999999999998,-1.2419816749999995,Y2Ge1I2,mp-676315
2.1414999999999997,-0.44369108049714256,Na2H4Pt1,mp-697096
1.0645000000000007,-0.6889417814285714,P8Pt4,mp-730
0.0,-1.2247628427777784,Cr2Ag2O8,mp-754959
3.5511,-2.883037629999999,Tm2As2O8,mp-771977
3.7422,-3.083498033977274,Dy8Ge8O28,mp-772793
4.3796,-3.8134673052499997,La16Al8O36,mp-780409
2.869,-2.9433786933750006,La12Ga20O48,mp-780561
0.0,-1.0522151258928574,Cr6S8,mp-849071
0.0,-0.44604907515151576,Pr2In8Pd1,mp-861587
0.0,-0.6535869483333325,Ti2Fe1Ir1,mp-861672
0.0,-0.4296373387500003,Li1Er1Hg2,mp-862618
0.0,-0.3995916162500004,Be1Fe2Si1,mp-862669
0.0,-0.3083410933333335,Dy1Mg1Ag2,mp-862680
0.0,-0.4082923006250001,Pm1Cd1Hg2,mp-862892
0.0,-0.37130059800000015,Na1Nd1Hg2,mp-865115
0.0,-0.7608829524999994,Yb1Y1Rh2,mp-865429
0.0,-0.35707818125000035,Y2Zn1Ru1,mp-865592
0.0,-0.27248914000000024,Mg1Rh3,mp-865611
0.0,-0.26574888999999996,Lu1Cd2,mp-865732
0.0,-0.3031700970833331,Li2In1Sn1,mp-865737
0.0,-1.89579421575,Yb6Ge2O2,mp-865834
0.0,-0.35884148375,Li1Si1Ru2,mp-865838
0.0,-0.27891100166666627,Ce1Ag1Hg2,mp-865885
0.0,-0.8779326024999996,Al2Ir1Ru1,mp-865989
0.0,-0.5791339425000004,Gd2Pd1Ru1,mp-866052
0.0,-0.4614286720833334,Yb2Cd1In1,mp-866175
0.0,-0.5384241612499996,Ca1Y1Hg2,mp-866223
1.6426000000000003,-2.472560323750001,Ba4Nd8S16,mp-866306
0.0,-1.3179299185714295,La12Ni4Br12,mp-866714
0.0,-0.3292443381250001,Pm3Pb1,mp-867189
0.0,-0.628456318611112,Tb4B16Ru4,mp-867230
0.0,-0.5560458125000007,Li1Y2Ir1,mp-867235
0.0,-0.2223513174999998,Li1Al1Cu2,mp-867272
0.0,-0.3382664991666662,Dy1Ag1Hg2,mp-867898
0.0,-0.6572769541346151,V4Ge1Se8,mp-8689
1.9355,-2.0440739272290913,Mg2Au4F16,mp-8708
1.4848999999999999,-2.357160505794644,Na4P4Pd2O14,mp-8989
0.0,-2.059774504642857,Sm2Cu4O8,mp-9417
0.0,-0.7238699466666662,Ce2Rh4,mp-951
1.2979000000000003,-0.3909014198333338,Na2Be2As2,mp-9573
0.0,-0.21215568562500042,La1Ho1Ru2,mp-973101
0.0,-0.3416838195833334,Ho1Lu1Ag2,mp-973283
0.0,-0.2893739744181034,Rb1Zn4As3,mp-975144
0.0,-0.19108764892857164,Lu2Be26,mp-976039
0.0,-0.6978688668749982,Hf2Re1Rh1,mp-977407
0.0,-0.5588560029166677,Zr8Sb16,mp-979
0.0,-0.18262735054687473,Cu3Sb1Se4,mp-9814
0.0,-0.08662414333333383,Ge4Os2,mp-10032
0.0,-0.43956893777777734,Gd2Zn2In2,mp-1018711
2.7207999999999997,-2.041810956354167,Ho2S2I2,mp-1018731
0.0,-0.3993268614285717,Zr1V2Ga4,mp-1025165
0.0,-0.11025788624999988,Sr4Cu4,mp-1025402
0.0,-0.6503001137500002,Tm2Ga4Ni2,mp-1025504
0.0,-0.6273408862499998,Pr2Ga4Ni2,mp-1025536
1.8302999999999998,-1.135812722448571,Ca28Si4N24,mp-1029474
0.0,-0.8703878218149992,Sr4Mn4N8,mp-1029878
0.0,-0.3074071825,Er2Tl2,mp-1054
0.0,-1.4988201799999992,Pr1As1,mp-10622
0.0,-0.31300750437500025,Yb1Ni1C2,mp-1064469
0.0,-0.7880727009999987,Tb1Si3Ir1,mp-1068588
0.0,-0.6013653760000004,Lu1Au4,mp-1068773
0.0,-0.8320221769999996,Ca2Cd1Pt2,mp-1069824
0.0,-0.5472167154166669,Nd1Si1Ni4,mp-1070857
0.0,-0.4471363480000008,Gd1Al3Cu1,mp-1076933
0.0,-0.7436654645312504,Cd1Cu2Sn1S4,mp-1078292
0.0,-0.37542471866666605,Sc4In2Cu4,mp-1078544
0.0,-0.47435019583333354,La3In3Ni3,mp-1078593
0.0,-0.7137781310000001,Ce2Sn4Pd4,mp-1080026
0.0,-0.5154313064999997,Sm2Ni4Sn4,mp-1080144
0.0,-0.36260160541666675,Ca2In4Ni2,mp-1080611
0.0,-0.7431065990000001,Lu4Co2Ge4,mp-1091386
0.0,-0.08459773166666669,Mg4Cd8,mp-1094763
0.0,-0.06319042999999991,Li1Mg1,mp-1094889
0.0,-0.5978167244444437,Hf3Ge3Os3,mp-1095196
0.0,-0.5392771874999998,Pr2Al8Ni2,mp-1095484
0.24880000000000058,-2.067593111189999,Lu1N1,mp-1102
0.0,-0.5705184533333328,Eu4Ga4Sn4,mp-1102160
1.1892999999999998,-2.0358914778645834,Ba2Gd2Cu2S6,mp-1102297
0.0,-0.8361319944444432,Eu3B2Pt7,mp-1102298
0.0,-0.9322645340476186,Zr4P4Os4,mp-1102976
2.8512,-1.3382599238400001,Ga2Hg2Cl8,mp-1103091
0.0,-0.7827962365476194,Ta4P4Ru4,mp-1103180
0.0,-0.29077345230769297,Yb1Ga6Fe6,mp-1104436
0.0,-1.2371494549999997,Dy6Pt8,mp-1104664
0.0,-0.7822356418749994,Er6Ge6Ru4,mp-1105754
0.40729999999999933,-0.6925956929999998,Er6Cu6Sb8,mp-1105955
0.0,-0.7541988390000007,Lu4Si10Ni6,mp-1105977
0.02059999999999995,-2.8140986134077774,Ba2Tb2Mn4O10,mp-1106241
0.0,-0.651918937777778,Ta1B2,mp-1108
0.0,-3.2994135322427356,Cs3Ti1F6,mp-1112963
0.0,-0.5807352133333331,Sc6Fe1Sb2,mp-11201
0.0,-0.7983521524999997,Sc1Au1,mp-11256
0.0,-0.3098325074999999,Li3Pd1,mp-11489
0.0,-0.5057662725000007,Sc1Ni1,mp-11521
1.2926,-2.154529591928572,K4Tl2P2C2O14,mp-1178146
0.0,-0.2951720043749999,Ho10Tl6,mp-1181055
0.0,-0.9457918788235292,Dy4Ge6Rh7,mp-1181515
0.0,-0.39131440291666664,Ce1Ho1In2,mp-1183753
0.0,-0.33142871625000003,Dy1Ho1Tl2,mp-1183780
0.0,-0.2966421800000001,Dy1Lu1Tl2,mp-1183789
0.0,-0.8304907666666672,Er2Ag1Pt1,mp-1184085
0.0,-0.3096901325000001,Eu1Mg1Tl2,mp-1184347
0.0,-0.5631169768749995,Hf2Re1Pd1,mp-1184592
0.018400000000000194,-0.012406654586666453,K1Mg149,mp-1185536
0.0,-0.22430373625000044,Nb1Sn1Ru2,mp-1186233
0.0,-0.39123592812499997,Pm1Pr1Tl2,mp-1186631
0.0,-0.6314321462499999,Tm2Zn1Au1,mp-1187587
0.0,-0.9925775062500009,Tm4Si4Pd8,mp-1188299
0.0,-0.8773034317647059,Er4Ge6Ir7,mp-1189162
0.0,-0.7792840306562503,Nb6Rh2Se12,mp-1189225
0.0,-0.42507466187499965,Ce2Ga12Ni2,mp-1190078
0.0,-0.46756968062499976,La2Si4Ni18,mp-1190732
0.022199999999999775,-0.5661058824242428,Tb6B14W2,mp-1191743
0.0,-0.7279185002380947,Lu2Fe12P7,mp-1192008
0.0,-2.9226166434999996,Na4Yb4Si4O16,mp-1192434
2.1229999999999998,-1.4624461015900005,Mn4Sb6I6O10,mp-1192820
0.0,-0.36992035689655234,Lu2Ni21B6,mp-1193129
0.0,-0.19504478428571406,Y2Be26,mp-1193534
0.0,-0.973501903894558,Eu12In4P12,mp-1193614
0.0,-0.9693500121428562,Sc12Si12Rh4,mp-1193822
0.0,-0.3931547972413786,Hf2Ni21B6,mp-1194313
0.19610000000000039,-2.407815572925484,Sr2Ti2Cu8P8O34,mp-1195138
5.5847999999999995,-2.816686108177303,Tb4P16H4O48,mp-1195189
3.0873999999999997,-2.0322612841875003,Na4Y4Te16O40,mp-1195227
0.0,-0.09230460391304356,Y2Cd40Ni4,mp-1195833
2.3133999999999997,-1.3313876716146869,Li12As4H64S16O32,mp-1196446
0.0,-0.7082989857894733,Lu10Ge20Ir8,mp-1196530
0.0,-0.7416464913157902,Lu10Ge20Rh8,mp-1197583
0.07429999999999914,-0.23199986152173857,Ce2Al40V4,mp-1197724
2.4627999999999997,-2.825391405787038,Ba12Y4Fe8O30,mp-1198058
5.6963,-1.9399507183577613,B8H8S24O88,mp-1200187
1.7972,-2.3656937002392917,Cs1V3B2P4H8O22,mp-1200471
0.0,-0.43929352601851845,Pr4B16Ru16,mp-1200756
2.3338,-2.076990643715978,Cs8Re4Cl12O12,mp-1202505
2.2741999999999996,-1.9447410292708336,Tb16Ga4Sb4S36,mp-1202576
2.7916,-1.7003075780659997,Li4As12H8O36,mp-1203059
4.159000000000001,-2.935868162691177,K64Sr16Si48O144,mp-1203391
0.0,-0.8210878133531736,Pr5P12Ru19,mp-1205135
0.0,-0.5758031542499993,Nd2Si2Ru4C2,mp-1205506
1.5131000000000001,-1.1742498349856323,Cs2Tl2O2,mp-1205877
0.0,-0.3097884455555552,Li5Cu2Ge2,mp-1205902
0.0,-0.2528659641666664,Tm1Cd1Cu4,mp-1206022
0.0,-0.21635491975000037,Dy1Ru3C1,mp-1206121
0.0,-0.6755122911111116,Tm3Mg3Au3,mp-1206259
3.4568999999999996,-2.988776156876256,Cs2Mn1F4,mp-1206528
0.0,-0.4551526522499998,Sm2Re4Si2C2,mp-1206564
1.5507999999999997,-1.5013315190712497,Tb1H1Se1,mp-1207080
0.0,-0.9839226958333326,Tm4Sb4Rh4,mp-1207702
0.0,-0.70442119375,Tm10Bi2Pd4,mp-1207987
3.3428999999999993,-3.0095707757500008,Tm12Ga20O48,mp-1208125
3.4208000000000003,-3.065070369239131,Sr3Nb1Ga3Si2O14,mp-1208777
0.0,-0.20148837791666688,Sm16Mg4Ru4,mp-1208945
0.0,-0.5659242796428572,Sc4Al18Co6,mp-1209089
0.0,-0.4626194167500003,Pr2Si2Os4C2,mp-1209299
0.0,-0.8000280113755546,Nb10Si6N2,mp-1209941
2.3236999999999997,-2.4422874820347285,Rb8Mo12P12O68,mp-1210317
0.0,-0.5111076646969702,Sc50In3Rh13,mp-1210379
4.7689,-3.6057504983500004,Hf4Tl4F20,mp-1212176
0.0,-0.4424881064583337,Dy6In10,mp-1212972
0.0,-0.3841454134999992,Dy8Os4C8,mp-1213167
0.1694,-1.8881660844187258,Cs2Ca2Ta12Cl36,mp-1213700
0.0,-0.7637778646874995,Ce20Ge4Sb8,mp-1213986
0.0,-0.08032397035714313,Ba2C12,mp-1214417
0.0,-0.3685210436206239,Zr6Al7Cu16H3,mp-1215380
0.0,-1.3591020231562503,Zr4Se6,mp-1215598
0.0,-0.8074007250000008,Ti1Nb1B2,mp-1216709
0.0,-0.13690452500000028,Ti2In2,mp-1216825
0.0,-0.3828057379166667,Ti1Al2Zn1,mp-1217009
0.0,-0.6478503552941173,Tb2B6Rh9,mp-1217714
0.3523000000000005,-1.1752719507500007,K1Cr5S8,mp-12178
0.0,-0.3769551180208326,Ta12Te2Se4,mp-1218083
0.0,-2.8376072211086667,Sr4Nd8Mn12O36,mp-1218259
4.1902,-3.492864512187501,Sr4Al4Si2O14,mp-1218879
0.0,-0.6440823674999999,Sm1Zn1Si1,mp-1218957
0.0,-0.19137834049999966,Sn14Ir4Os2,mp-1219021
0.0,-0.2852945191666662,Pr1Cu4Pd1,mp-1219996
6.167000000000001,-4.009389952237778,Na3La3F12,mp-1220826
3.5986000000000002,-3.133271967369048,Na1Nd9Ge6O26,mp-1221045