band_gap,formation_energy_per_atom,full_formula,task_id
0.0,-0.8426828966666674,Sm4Al4Pd4,mp-1102212
0.0,-0.15374750583333352,Tb4Tc8,mp-1102233
0.0,-0.6165656858333328,Eu4Zn4Au4,mp-1102568
0.0,-0.4411602778787879,Ce2In8Pt1,mp-1103614
0.0,-1.1680897623809525,Ce4Ni4P4,mp-1103629
0.019599999999999618,-0.2866463901785709,Y2Al6C6,mp-1104050
0.0,-0.2515500419230764,Er1B12,mp-1104598
0.0,-0.4618149685185181,V10Ge6B2,mp-1106398
6.163,-3.551694718614,K3Sc1F6,mp-1111079
3.8876999999999997,-3.157329873314,K2Li1Cr1F6,mp-1111927
0.0,-0.1492178160714285,Ba2Cu18Ge8,mp-11145
0.0,-0.8338105568571436,Ba1P2Ir2,mp-11169
0.0,-0.07464142307692338,Al12W1,mp-11227
0.0,-2.3333970180000008,Ba4Mg1Bi3O12,mp-1147558
0.0,-0.12309562884615378,Sc1Zn12,mp-11567
0.0,-0.5059743433333335,Ti1Tc1,mp-11573
0.0,-0.08736788499999903,As6W4,mp-11696
1.9250999999999996,-3.0572742010714293,Li8Ti12Fe4O32,mp-1177863
3.8301000000000003,-2.8450722839439653,Cs4Hf2O6,mp-1178405
6.149299999999999,-2.736629188448182,Y2B12H6O24,mp-1178731
1.5692,-0.9531566002898809,Rh12S12Cl60,mp-1179727
0.0,-3.1858371667500007,Eu16O24,mp-1182469
1.1101999999999999,-2.7548094988400003,Eu2Cl4,mp-1183892
0.0,-0.0026171824999998705,Dy2Tm6,mp-1184143
0.0,-0.47098650666666675,Dy1Y1In2,mp-1184424
0.0,-0.1856485400000003,Li1Mg1Pb2,mp-1185374
0.0,-0.1408623299999996,Lu6Tl2,mp-1185522
1.8022999999999998,-0.7553087481034482,Cs2Hg1Te1,mp-1185537
0.0,-0.5350567125000003,Mg1Sb1Rh2,mp-1185944
0.0,-0.2480483850000006,Nb2Tc1Ru1,mp-1186209
0.0,-0.6538056425000001,Tm2Ru1Au1,mp-1187585
0.0,-0.21508765375000038,V1Sn1Ru2,mp-1187738
0.0,-0.49621123749999985,Zn1Ge1Rh2,mp-1187920
0.0,-2.4940890747499997,Ca4Tc4O12,mp-1188853
5.373100000000001,-2.7749772002379998,K3B6Cl1O10,mp-1189091
0.0,-0.5054261527083339,Pr6In10,mp-1189599
0.021399999999999864,-1.981947935364584,Nd4Eu4Cu4S12,mp-1191419
0.0,-0.6558991496825399,Ta7B8Ru6,mp-1191981
2.4762999999999997,-2.1643138364406656,Mn8Si2Te2Cl4O14,mp-1193890
0.0,-0.4851901871257139,Nb12Fe12N4,mp-1194201
2.2500999999999998,-2.947230301224,La6V2H6O16,mp-1194534
1.1621000000000001,-0.867428900091106,Rb8Cu8Sb8S20,mp-1195291
0.0,-0.8738113921052628,Er10Si20Ir8,mp-1195957
0.0,-0.06654033025000103,Sm12Tl2Fe26,mp-1196845
0.0,-0.3953400441666667,Dy8Ni28,mp-1197874
2.3863999999999996,-2.107646968596154,K4As4W8O36,mp-1198481
4.818,-2.9123528289995835,Ba6B12H4O26,mp-1199009
4.3999999999999995,-1.9062466880952378,Sb8S16O60,mp-1199191
0.0,-0.42269412298076997,Er8Ni60B36,mp-1199522
1.7144000000000001,-1.0438706788161942,Cs8Hf6Se28,mp-1200567
0.0,-0.5023206840000007,Pr6Sn26Ir8,mp-1201825
0.0,-0.3781743532857133,Lu30C40,mp-1203767
0.0,-0.11013078894736707,Lu4Co34,mp-1204082
0.9256000000000001,-1.766048904211538,Cs4H4Pt8S16O64,mp-1204209
3.5469000000000004,-1.6926625236964639,Nd8H24Se28O80,mp-1204742
0.0,-0.3208852113257579,Ga6Ni54B28,mp-1204832
1.4550999999999998,-1.8454349413304212,Cs2Mn1Cl6,mp-1205772
0.0,-0.5359828500000003,Er6Mn1Sb2,mp-1205843
0.0,-0.8524190845454546,Y7Te2Au2,mp-1206192
0.0,-1.9185646783955557,K2V1Cl6,mp-1206608
0.0,-0.5874525666666658,Er2Cu2Sn2,mp-1206800
0.0,-0.7257378375000005,Tb2Fe2Si4,mp-1207018
0.0,-1.0584695766666659,Gd2Ga2I2,mp-1207031
0.0,-0.7997740569999998,Ce1Si3Pt1,mp-1207122
0.0,-0.8717274866666666,Tm4Sb4Ir4,mp-1207694
2.7869,-2.3306704838020833,Ti8Tl8As8O40,mp-1208295
3.9271999999999996,-2.9423413246814287,Sr4Mn4P8O28,mp-1208769
0.0,-0.8389770366666672,Pr4Sb4Ir4,mp-1209285
0.017800000000000038,-3.420855931142457,Rb8Eu4F20,mp-1209763
0.18260000000000076,-3.028194919196428,Pr6Re4O18,mp-1209784
0.0,-0.2345219172142862,Ni2P16W2,mp-1209791
2.8068,-1.9399219753708339,Nd4In8Cl20,mp-1210010
0.0,-0.47870950477941093,Sm46Cd8Rh14,mp-1210149
0.0,-0.22340745753906255,Nd12Mn5C15,mp-1210168
5.112299999999999,-2.1310468902053334,Na6Mg1Cl8,mp-1210184
0.0,-0.6509618806250002,Mg6Pd10,mp-1210703
3.561,-2.6369366249999993,Li2Sc2W4O16,mp-1211126
0.0,-0.7959678914285705,La4Al18Rh6,mp-1211312
0.0,-1.7256098492857146,La12As4Br12,mp-1211477
0.0,-1.0524892616666672,Ho4Ni4As4,mp-1212066
0.0,-0.5821615252941181,Ho4Ga12Pd1,mp-1212232
0.026399999999999757,-0.3283328441509435,Ho12Nb8Al86,mp-1212405
0.0,-0.7129161533333329,Hf4Fe4As4,mp-1212428
0.0,-1.0819806480422218,Hf10Si6N2,mp-1212442
0.0,-0.3177612352857149,Dy30C40,mp-1213387
0.0,-0.6469682884999998,Ce4Ni6Ge10,mp-1213960
0.9795000000000003,-2.779872946961428,Ba10Cr6O24F2,mp-1214531
0.0,-0.10837920833333332,Zr2V2Mo2,mp-1215168
0.0,-0.4695335394642858,Yb1Sm1B12,mp-1215481
0.0,-0.664839324166667,Yb2Ag1Pd1,mp-1215836
4.4527,-1.2742063904414997,Y2H36Br6O36,mp-1216448
0.0,-0.47853062749999964,V4Fe2Si2,mp-1216581
2.5763000000000003,-1.8734645703125006,Tl8Ge8Sb8O40,mp-1216957
0.0,-0.45427730761904733,Sr1In1Au5,mp-1218230
2.9231000000000003,-3.7527719572348492,Nd16Ti16O56,mp-12193
0.0,-0.32072371416666695,Sc4Fe6Ru2,mp-1219434
2.6482000000000006,-3.8465873546951315,Pr12S6O4F16,mp-1219884
0.0,-0.1415761708333329,Nd4Y4Co56B4,mp-1220235
0.0,-0.2016664203846163,Nb13Ni13,mp-1220799
1.8698999999999995,-1.4880418464499996,Na1Bi3I2O4,mp-1220823
0.0,-0.18583246624999994,Li2Mg1Cd1,mp-1222648
0.0,-1.6132588655649993,La1Ce1N2,mp-1222918
0.6413000000000002,-3.3158275119078957,La8Ti6S8O16,mp-1223217
0.0,-0.024226048000000232,Hg1Pb4,mp-1224108
0.19339999999999957,-0.1426270574814818,K8Sn42Hg4,mp-1224491
2.5966000000000005,-1.9042368128676481,Ga4Bi12Sb8O44,mp-1224998
1.1689999999999996,-0.20742190695312482,Dy2Si9B36C1,mp-1225372
0.0,-1.6434707130649988,Ce1Nd1N2,mp-1226534
0.0,-0.5003387766666663,Ce1Al1Ni4,mp-1226626
0.0,-2.4010584386979175,Ca1Sm2S3,mp-1227043
0.0,-0.720344925,Mg4Pt4,mp-12651
0.0,-1.2064158574999997,Er1Te1,mp-1280
0.0,0.0,Al1,mp-134
0.23609999999999953,-0.15268033499999945,Mg2Si1,mp-1367
5.379,-2.846804097535716,Sm4P20O56,mp-13753
6.6345,-3.672217250869961,Rb2Zr1F6,mp-13946
0.0,-0.7340619527777782,Li3Y3Ge3,mp-14209
5.6251999999999995,-2.508240412220396,Li8Mg8S12O48,mp-14646
0.0,-1.0312697710199987,Ca6Mn2N6,mp-14763
0.0,-0.9759811459259256,Tm6Si18Rh30,mp-15308
0.9261999999999997,-2.4967994341666664,Ba4Li1Cu1C2O10,mp-15472
0.0,-0.5559007286458328,Tm8B16C8,mp-15604
0.0,-0.37715362999999985,Ce2Ni4,mp-1654
0.0,-0.48819076083333357,Pr8B20,mp-16713
2.2373999999999996,-1.4153074665948278,Cs8W4S16,mp-17361
1.4433000000000002,-1.347457423068576,Pr6Si2Ag2Se14,mp-17389
0.0,-2.8267391265909088,Sr6Sc2Ni2O12,mp-17557
1.4022999999999999,-0.6036269604965274,Na8Ge8Se20,mp-17964
0.0,-0.7577288419230771,Ca10Ga4Sb12,mp-17985
3.9352000000000005,-2.8779455483556253,Ba4La2C6O18F2,mp-18111
0.0013999999999994017,-0.8538250485064922,Nb14P8,mp-18254
2.4355,-0.73085356521875,Na8Si8Se20,mp-18562
0.9979999999999993,-3.288533186250001,La4V4O12,mp-19350
0.0,-0.33620258699999894,Ca1Mn2Ge2,mp-19824
0.0,-0.19801471333333373,Ni2Sb4,mp-19895
0.0,-0.6266542527500001,Dy3Sn1C1,mp-19899
0.03480000000000061,-0.5701622633333336,Zr4Mn4Ge4,mp-20059
0.0,-0.06380104559500044,Ni6N2,mp-2033
0.0,-1.0347056322222217,Pr3Sn3Pt3,mp-20390
0.0,-0.4494422594999989,Er8Re4C8,mp-20799
0.0,-0.1901800368333332,K4Pb8,mp-21170
0.0,-2.6952912705233327,Sr4Mn2Ga2O10,mp-21302
0.26449999999999996,-0.5634649721822219,Sr12Cu12N12,mp-21609
1.4685999999999995,-2.9215865721811207,Sr4V8P8O36,mp-21614
0.0,-2.5657745463815793,Ba20Al4Ir8O44,mp-21742
0.0,-0.41478495988095315,P4Ru8,mp-21911
0.0,-0.6196274973333327,Zr8Co8Ge14,mp-22233
0.0,-1.9116777915728582,Eu2C1N2O2,mp-22234
0.0,-0.011067911875000114,In12Co4,mp-22236
1.4079999999999995,-1.9634496021428578,Fe4Ge2O8,mp-22421
0.0,-0.8896558358333332,Sc4Si4Ni4,mp-22426
0.0,-0.12235267249999993,Fe3Ge3,mp-22478
0.0,-1.2590003051785723,Zr16Pd8O4,mp-22479
4.0513,-2.653946918826087,Na8Ga6Si6Br2O24,mp-23659
4.0057,-1.8403822191233334,Li2H2O2,mp-23856
0.0,-0.7887719307466666,Er1H2,mp-24192
0.0,-0.9074312474999999,Er1Ir1,mp-2713
1.0629999999999997,-0.8479593945454547,Ba4Ag24O16,mp-27286
0.0,-0.5385220875,Zr4Al8,mp-2772
2.2138999999999998,-1.795493614108199,Cs2Ge1Cl6,mp-27882
0.0,-2.006927982358299,Rb2Ti2Cl6,mp-28282
1.4532000000000003,-1.5942697782500002,K8Pb8O16,mp-28574
0.0,-0.5205778074599999,Li6Fe2N4,mp-28628
0.0,-0.8417438893749996,Nd2Si4Ru2,mp-28665
0.0,-0.7570465371875006,Gd4C2I2,mp-28724
1.5714000000000001,-0.569133880277778,In4Te4Br4,mp-29236
0.0,-0.6786807659999994,Tm1Fe2Si2,mp-2938
0.9105999999999999,-0.32712398942672394,Rb6As2Se32,mp-29501
2.9649,-1.7445543103560535,Rb8Ag4Cl12,mp-29693
2.8236999999999997,-1.8380697674388893,Ta6Cl30,mp-29831
4.4044,-1.9915470542413793,Cs1Ca1Br3,mp-30056
3.1412999999999998,-1.8314489813159232,Cs3As5O9,mp-30300
0.0,-0.1714119437499999,Cd10Au6,mp-30371
0.0,-0.6936566681249996,Sm2Au6,mp-30417
0.0,-0.512028275,Ca6Ga10,mp-30473
0.0,-0.21836486624999996,Sc2Cd6,mp-30494
0.0,-0.6185679731249998,Nd20Ir12,mp-30522
0.0,-1.0947545399999992,Ho3Sn3Pt3,mp-30733
0.0,-0.3178699055555556,Li7Pb2,mp-30761
0.0,-0.05893250012820499,Mg6Zn33,mp-30784
0.0,-0.14804864949999938,Pr8Mo4C8,mp-31258
0.0,-0.6802682900000003,Li2Sb1Pt1,mp-3158
3.4658,-3.2099828420735292,Na4Ta8O22,mp-3285
0.0,-0.9180338140000017,Tb1Si2Ru2,mp-3678
0.0,-0.12117844745098108,Er8Fe56B4,mp-3680
0.0,-1.863640479811579,Sc1Ti9N9,mp-37808
0.0,-0.7850538030357147,Co4Cu2S8,mp-3925
3.7142,-1.674306794973334,Sr4N8O24,mp-4157
0.0,-2.9931772000000003,Nd2Cu1O4,mp-4158
0.0008999999999996788,-0.059983777499999835,Zn2Sn2Sb4,mp-4756
2.3700000000000006,-2.2884314704340283,Ni6B14I2O26,mp-504714
2.179,-1.768930783321428,K4Na8Fe4O12,mp-504863
0.0,-1.935666141388889,Fe2Sb4O12,mp-505009
0.0,-0.4821284293333328,In8Pt12,mp-510439
0.0,-0.9320358278571433,Ca1P2Ru2,mp-5157
0.0,-0.8135373816666659,Lu1Sn1Au1,mp-5177
0.0,-0.6761995580000004,Tb1Fe2Si2,mp-5399
0.0,-3.2893876545220584,Sr7Nb6O21,mp-541049
4.0752,-2.585307125289116,Cd4Si2P8O28,mp-541108
0.8004,-0.26085322700000013,Te2Au2Br16,mp-541134
0.0,-2.2011003860325005,Eu1Bi2Cl1O4,mp-550566
1.5299,-2.4451939457857153,V4Ni2P4O20,mp-554784
2.2525,-1.553929460670286,Sb4P4Cl24O8,mp-554847
1.7245999999999997,-1.8033888844531258,Er6Cu2Ge2S14,mp-555081
1.694,-2.9473648982387495,Na8Mn4F20,mp-555618
3.4608999999999996,-2.782948954626916,Rb2Na2Ti2O6,mp-556185
2.6118000000000006,-2.033039136304286,La6Si4S16Cl2,mp-556246
3.9536000000000002,-2.855313460294763,Ca10As6O24F2,mp-557482
2.2965999999999998,-2.515218766261905,K8V16P8O64,mp-557947
1.8523,-2.950196879286666,Li2Mn2F8,mp-558059
3.5008999999999997,-3.497500864230769,Nd16Ge4O32,mp-559014
4.3828000000000005,-3.620109406839999,Nd12Si8Cl4O32,mp-559764
0.0,-1.9330234734447616,Na12Mn16Te8O48,mp-561325
2.8305,-1.5906975206575003,Al4Bi4S4Cl16,mp-561350
4.942200000000001,-2.2777954038214476,K8Mn8S12O48,mp-561539
2.6372999999999998,-1.5332620516369044,Li4Co6Se8O24,mp-562404
2.9918,-2.377093738448979,Na4Co4P4O16,mp-562796
0.0,-1.4111081570000004,Sr1La6Os1I12,mp-567419
0.01499999999999968,-2.7894242174661223,Ba9Sm6Cl34,mp-567646
0.0,-1.0262081987500007,Sm1Si2Rh3,mp-568555
1.7887,-2.091724845213333,Zr2N2Cl2,mp-568592
0.0,-0.4572451183333328,Mn2Ga2Pt2,mp-569151
0.0,-0.5849540732638884,Nd1B2Rh2C1,mp-569294
0.49239999999999995,-1.393284021796875,Gd1Tl1Se2,mp-569393
0.0,-0.625863419166666,Sm4Zn4Sn4,mp-570159
0.0,-0.8652611290000003,Pr1As2Pd2,mp-570183
0.0,-0.5191417181944443,Yb6Ni14B4,mp-570788
2.9647,-0.6375421315,Ge8Br32,mp-571246
3.8337,-1.5034128396153335,In4Ga8Cl28,mp-571379
0.0,-0.5591334333333329,Lu4B16,mp-571495
0.0,-0.2548847804022987,Cs2Hg4,mp-574379
0.0,-0.5279055359090912,Gd6Al4Ni12,mp-580327
3.3077,-1.4661222771944447,Na4Y4I16O48,mp-581868
0.9354000000000005,-0.42254981435704053,Cs40In24As32,mp-582182
0.23970000000000002,-0.14192320437500072,In12Ru4,mp-607450
4.037100000000001,-2.7472034897527475,Ba4Zn8P8O32,mp-6089
0.8261999999999996,-0.38184016372605356,Cs20Ge4As12,mp-616141
2.7771999999999997,-1.628820374349047,In4H12O12,mp-626411
0.0,-0.4649106302777781,Gd3Al7Ag2,mp-637182
0.0,-0.7825808046666661,Er10Al6Ni6Ge8,mp-638521
0.0,-2.489415604416667,K2Eu2W4O16,mp-640227
0.0,-0.3710226883333334,Ce10Ni2Pb6,mp-640447
0.0,-0.6841003987962964,Y24Ag4Te8,mp-642238
0.0,-0.470004204166667,Ce21Fe8Bi7C12,mp-647805
3.3241,-2.5924135773269246,Na4Zn4Si4O14,mp-6507
3.0261,-2.2068564326536837,K16Mn16Mo24O96,mp-651434
0.9773000000000001,-0.3266208317999997,Nb8Te34I8,mp-651961
0.0,-0.26044356850000056,Ni12Sn8,mp-669720
1.1162,-0.9723884295312497,Cd2S2,mp-672
1.0735000000000001,-1.2114545742968748,Dy1Cu1Se2,mp-675349
2.3912,-2.357668761061533,Cs2Ni1F6,mp-689925
0.0,-0.3857776124999992,Zn1Rh1,mp-6938
1.9715999999999998,-1.5221623627717424,Sb8S76F48,mp-723419
2.341,-1.8476187346666666,K8Sn2O8,mp-7258
2.1241,-2.0162427373124996,Na6Sb2O8,mp-7404
0.0,-3.2069183098853844,Sc6N2O5,mp-755813
0.0,-0.840158494285715,Cu2Ni4O8,mp-756271
0.0,-0.033763453333334234,Cr22Ni50Mo3,mp-767825
2.5934999999999997,-1.979587079834559,Sn4S6O24,mp-768950
0.13670000000000027,-0.635836798,Sr1Cd2As2,mp-7771
5.7409,-3.0363162669044446,Li4Ge2F12,mp-7791
0.0,-0.46828084999999964,Ba1Mg2Ge2,mp-7876
3.8479,-2.505079318409962,Rb4Li4Si2O8,mp-8449
0.0,-0.9592666728571431,Ba1P2Rh2,mp-8583
1.9184999999999999,-1.6959954116718747,Na1Er1Se2,mp-8584
0.0,-0.6628172318749996,La1Pb1Au2,mp-862663
0.0,-0.4697413124999992,Be3Ir1,mp-862714
0.0,-0.17409836125000133,Sc1Tc2Mo1,mp-862723
0.0,-0.3240861214583335,Ca1La1Ag2,mp-862795
0.0,-0.7428664718749998,Pm1Mg1Au2,mp-862933
0.0,-0.3306430645833336,Nd2Mg1In1,mp-864612
0.0,-0.30740153999999986,Zn2Rh1Au1,mp-864844
0.0,-0.3810816566666668,Mg2Ag1Rh1,mp-864933
0.0,-0.6712378433333335,Mg1In1Pd2,mp-865043
0.0,-0.1536146533333329,Mg1Ga1Ag2,mp-865183
0.0,-0.2706887045833333,Li2Er1In1,mp-865579
0.0,-0.8790625624999997,Y2Ir1Pd1,mp-865600
0.0,-0.29739546749999946,Y2Mg1Al1,mp-865602
0.0,-0.7522385699999994,Yb1Gd1Rh2,mp-865764
0.0,-0.5522456875000001,Li1Sc2Rh1,mp-865793
0.0,-0.3633778212500003,Lu2Cu1Os1,mp-865830
0.0,-0.2925073276923069,Tm1Al8Cu4,mp-865864
0.0,-0.33294869687499995,Nd1Mg1Cd2,mp-866065
0.0,-0.7114491124999995,Be2Ir1Pt1,mp-867280
0.0,-0.5099455075000003,Sc1Sn1Ru2,mp-867748
0.0,-0.3378122006249997,Sm1Mg1Zn2,mp-867871
3.7266999999999997,-3.405742854741847,Ca4Al6S1O12,mp-8876
0.0,-0.9341172174999999,Zr4Si4,mp-893
1.2715,-1.4099541551249999,K1Sm1Te2,mp-9036
6.0428999999999995,-4.515876214434167,La6F18,mp-905
2.6958999999999995,-2.393222033055556,Ca1Sb2O6,mp-9125
3.4027,-3.035876685204024,Cs2Ta2B4O12,mp-9309
0.0,-0.23319863062500001,Pr1Ni1C2,mp-9312
0.0,-0.7767028733333324,Lu2Ge2Au2,mp-9351
0.0,-0.47366302062499965,Pm1Bi1Rh2,mp-973757
0.0,-0.58357167,Li1Mg1Au2,mp-977418
5.2645,-2.522783651853238,Na4P6H2O18,mp-978284
0.0,-0.8076716045238092,Tm2Co12P7,mp-979046
1.1383,-0.37460721661224483,K4Be1P2,mp-9872
0.0,-0.8275441224999991,Sc2Ge2,mp-9970
0.0,-0.9192336905747126,Cs1Ag1Br3,mp-998344
2.2721999999999998,-0.7130386025,Tl4Ge4Br12,mp-998746
0.0,-0.8559366149520002,Ca4W2N4,mvc-13792
0.019099999999999895,-2.509471446354167,Ca6Fe4O14,mvc-3672
0.0,-1.3600437692968752,Li1Zr1Se2,mp-1001615
0.0,-0.16590567533333384,In2Au3,mp-1017579
0.0,-0.556273381666666,Pr2Fe2Si2,mp-1018895
0.0,-1.3432336558690483,Na2Ti2As2O1,mp-1025360
0.0,-0.7892243655000002,Sm1Si3Ir1,mp-1068639
0.0,-0.17305741600000032,Mn1Ga4,mp-1069288
0.0,-0.2367957058333333,Sm2Cu4,mp-1077154
0.0,-0.5258965699999992,Tm2Cu2Sn2,mp-1077167
0.0,-0.6728471999999991,Li3Gd1Bi2,mp-1077469
0.0,-0.4042612666666668,Tm1Ni4Au1,mp-1077547
0.0,-0.3382966595982145,Tl2Pd3Se2,mp-1077903
0.0,-1.01258766625,Tb2Sn2Pt4,mp-1078626
3.7897000000000003,-3.1187285655833334,Sr2Ta1In1O6,mp-1078748
0.0,-0.5538884224999995,Gd2Al8Ni2,mp-1095605
0.0,-0.6092583315625006,La10Si6,mp-10961
0.0,-1.0108161933333328,Pr4Ga4Pt4,mp-1101824
0.0,-0.4236987361538459,Lu1Al8Fe4,mp-11037
0.0,-1.093272073571428,Ce6Pt8,mp-1104294
0.0,-0.3046428957692298,Ho1Al8Cu4,mp-1104954
0.0,-0.5849934360000001,Dy3Ga9Ru3,mp-1105019
0.0,-0.4979591293750003,Zr12Sb4,mp-1105139
0.0,-0.3125803983333337,Y8Al4,mp-11230
0.0,-0.5612355824999999,Ca1Hg1,mp-11286
0.0,-1.2171276795833341,V5S4,mp-1133
0.0,-0.47702127185185206,Gd2Co8B8,mp-1181496
0.0,-0.28055026333333455,Eu2Mg1In1,mp-1184025
0.0,-0.7922595300000008,Gd1Tm1Ir2,mp-1184532
0.0,-0.28773032750000027,Hf1Tc2Mo1,mp-1184589
0.0,-0.337878289999999,Hf2Cu1Tc1,mp-1184609
0.0,-2.633784457750001,La4Co4O12,mp-1185232
5.9282,-2.1276031491299996,Li2Cl2,mp-1185319
0.0,-0.6043215524999992,Pm1Sm1Ir2,mp-1186644
0.0,-0.38519506500000134,Ta2Mo1Ir1,mp-1186766
0.0,-0.3271972820833331,Sm2Mg1In1,mp-1187179
0.0,-0.3817965805555564,Zr10Cu2Bi6,mp-1188159
0.0,-0.7714802650000003,Y4Co6Si10,mp-1188435
0.0,-0.1604427264039998,I4N16,mp-1188721
0.0,-2.4677955394375006,Ce2Ho6S12,mp-1189290
0.0,-0.5953257113541666,La6In8Ge2,mp-1189294
0.0,-0.44906741999999955,Nd12Ir4,mp-1189686
2.8529999999999998,-2.665993456090909,Ba6Na2Sb2O12,mp-1190024
0.0,-0.37568425043478293,Ba3Ge16Ir4,mp-1190530
0.0,-0.07558023346591111,Gd2Fe17C3,mp-1191346
0.0,-0.531723336527777,Nd4Ni4B16,mp-1191368
0.0,-0.5941759940909095,Yb6Si4Ni12,mp-1191851
0.0,-0.7845044910714277,Tm4Ge8Rh16,mp-1192459
0.44300000000000006,-0.7795355871904761,Ba8Li4Cd6P12,mp-1192527
0.9790000000000001,-1.0664755921428568,Sr12Al4As12,mp-1192533
3.7154000000000003,-2.8104753472896666,Na5Nd4Ge4O16F1,mp-1192544
0.0,-0.5478186881034489,Zr6Fe16Si7,mp-1192960
0.0,-0.03744686999999952,Lu6Mn23,mp-1193176
0.0,-0.5195142241666661,Sc6Mn6Al14Si10,mp-1194721
4.1953000000000005,-2.543577235574713,Rb2Zr4As6O24,mp-1194730
2.5462,-1.9068092195240998,Cs4Ba8Sn4S16Cl4,mp-1194731
0.0,-2.5308547161993253,La4Y11S22,mp-1195795
0.0,-0.7784302807142853,Yb5P12Ru19,mp-1195798
0.0,-0.13095680755102063,Ga41Mo8,mp-1195805
1.8683,-0.9367001261781611,Cs2Au2I8O24,mp-1200560
0.0,-0.3514836819999999,Ce6Ge26Os8,mp-1201534
0.0,-0.8033084318253975,Sm4Co20P12,mp-1201674
0.0,-0.643471109444445,Y8B24Os4,mp-1201886
0.0,-0.14163752564625864,Ga40Ag1Mo8,mp-1203027
0.0,-0.5113883302857143,Tb4Ga21Ni10,mp-1203178
0.685,-0.39927918348816294,Zn4Te30H48N16,mp-1203875
0.0,-0.852774236061508,Sm5P12Ru19,mp-1204042
0.0,-0.6457381233333324,Ho8Re4B24,mp-1204735
0.0,-0.6495394069444447,Nd3Mg3Pd3,mp-1205891
0.0,-0.5786784756944433,Y4Co4B16,mp-1207600
0.0,-0.7212138325000002,Y4Zn4Rh4,mp-1207608
0.0,-0.32275660666666656,Tm16Cd4Ni4,mp-1207915
0.0,-0.3130368497222228,Tm12Co5Bi1,mp-1208024
0.0,-0.042815378214285715,Sr2C12,mp-1208630
0.0,-0.8306889755,Sm4Si10Pd6,mp-1208894
0.0,-0.18081194672413817,Rb1Au5,mp-1209
0.0,-0.3083929574528303,Sm12Ta8Al86,mp-1209186
0.0,-0.8411001460000002,Pr6Bi8Pt6,mp-1209333
0.0,-0.6365798607407408,Pr10Ag2Sn6,mp-1209345
0.0,-0.744681464166667,Sc8In4Au8,mp-1209388
0.0,-3.0949993830357143,Pr10Ge6O26,mp-1209712
0.0,-0.7458402407575758,Pr10In8Pt4,mp-1209726
1.7194000000000003,-2.4280095072500005,Pr4Ni2Pt2O12,mp-1209764
0.0,-0.8569504474999994,Nd12Ge8Rh8,mp-1210029
0.13450000000000006,-2.4023945840237615,Na2Mn6Ag2P6O24,mp-1210177
3.6790000000000003,-1.528794998723912,Li8Sm4N20O60,mp-1211322
0.0,-2.48282182425,Li2Eu4Ru2O12,mp-1211562
4.461399999999999,-2.863050201064286,K2Bi6F20,mp-1211670
0.0,-0.16994898270833314,Li28Mg32Zn36,mp-1211673
0.0,-2.0698813172875004,K4Zr12Be2Cl30,mp-1211747
0.0,-0.25584057416666656,La16Cd4Ni4,mp-1211864
0.0,-0.6262440441666666,Ho16Cd4Pt4,mp-1212306
0.0,-0.46736511208333315,Ho16Cd4Pd4,mp-1212312
0.0,-0.3499179862820508,Ho6Al60Re12,mp-1212490
0.0,-0.8361947876666667,Dy6Sb8Pd16,mp-1213109
0.9768000000000001,-1.1522419146618033,Cs2Pr2Nb12Br36,mp-1213382
0.5453999999999999,-1.3258906236646915,Cs2Er2Mn2Se6,mp-1213650
0.0,-2.5812385577500003,Ca12Ga12Sn8O48,mp-1214159
0.0,-2.4038172640441178,Ba8Dy2Cu6O18,mp-1214524
0.0,-0.5126687691666666,Zr2Al3Zn1,mp-1215442
0.0,-0.5167552805555554,Ti13Al9Co8,mp-1217391
1.7475000000000005,-0.9420941151562499,Ta1Nb1Cu6S8,mp-1217925
0.0,-2.5442599497500007,Sr2Pr2Fe2Ru2O12,mp-1218067
0.0,-1.0636013335714283,Pr4Nd4Sb6,mp-1219883
3.1794000000000002,-2.0338477078356005,Pr16Br26N6O2,mp-1219947
2.4116000000000004,-1.6420149913461541,Pr4Si4Pb2S16,mp-1220007
0.0,-0.5077965669444447,Pr3Ga6Ni9,mp-1220050
0.0,-0.6084876197727266,Nd3Ni1Sn7,mp-1220380
0.0,-1.3810040608333347,Nb6Tl1S8,mp-1220483
0.41969999999999996,-1.6846805203325,Na1Cu2H3S2O10,mp-1221084
2.4522999999999997,-2.377246707816667,Na2Ti1Te1O6,mp-1221267
0.0,-0.35581630981481477,Na30Sn12Au39,mp-1222050
0.0,-2.391427738906251,La1Tm1S2,mp-1222701