band_gap,formation_energy_per_atom,full_formula,task_id
3.1003000000000003,-1.0688801282016664,Cl2F10,mp-1213763
0.6130000000000004,-1.2503514570833332,Ba2Nd2Cu2Te6,mp-1214402
0.17280000000000004,-2.2126599680000005,Ba4Li1Bi3O12,mp-1214461
3.929,-3.4271017385648146,Ba12Tb4Al8O30,mp-1214513
3.4815,-3.0340649693055552,Ba12Lu4Ga8O30,mp-1214574
4.0577000000000005,-3.1381462878656468,Sr8Bi2P6O26,mp-1218632
4.9583,-3.305446281892551,Sr20P12Br3Cl1O48,mp-1218945
1.7862999999999998,-1.5360637015848218,Pr18Al10Se42,mp-1220064
1.3882,-0.604721175551948,Na10Sr2Ta2P8,mp-1220774
7.0318,-3.964272574043333,Na3Pr3F12,mp-1220948
7.0831,-3.9760546066822218,Na3Nd3F12,mp-1220999
2.8984000000000005,-2.132024615475,Na2V6Pb8O24,mp-1221016
0.40609999999999946,-1.1009716105357146,Mn1Zn1Cr4S8,mp-1221557
1.41,-0.5897978675052086,K8Sn8Au8Se24,mp-1223442
4.395,-3.0952512335295244,K2Ca1Mg5Si8H2O24,mp-1223917
2.9901,-3.446230245783396,Cs6Ti2F14,mp-12244
2.6509,-3.6848539778769855,Gd10Si4B2O26,mp-1225149
1.6010999999999995,-2.1387576375000004,Cr2Sn2Sb2O12,mp-1226180
0.8559000000000001,-1.4220568334600316,Cs6Sm14Te24,mp-1226825
2.8891000000000004,-3.643495720416668,Ca4Zr4Ti8O28,mp-1227163
0.028899999999999263,-1.1723984121428563,Bi2Pd3Pt1O8,mp-1227497
1.9035,-2.920342140476192,Ca6Ti2Fe4O16,mp-1227734
0.05010000000000003,-2.193489387583333,Ba6Zn2Ir2Ru2O18,mp-1228233
0.9631000000000004,-0.909684365714286,Ba2Li2P2,mp-13277
3.5407,-2.7147772117499995,Ba4Ge4O12,mp-13863
0.6701999999999999,-1.512624606952,Pd2F8,mp-13868
0.9036000000000004,-0.9604008712244898,Sr6P8,mp-14288
4.473000000000001,-3.711856334625,Tb12Al20O48,mp-14387
3.6092,-3.323933604583334,Pr16Ga8O36,mp-15577
0.02610000000000001,-0.3953789833333333,Sr4Mg4Si4,mp-15642
2.2893,-0.7581423582366069,Tl12P4S16,mp-16848
3.6599,-2.4004088042911267,In8P8O28,mp-17100
3.71,-2.603684031622118,Rb4As4O4F16,mp-17337
0.5834000000000001,-1.7474339624876851,Cs8Ru4O16,mp-17546
2.2959,-2.9395716781477783,Ho4Pt4F28,mp-17651
4.995900000000002,-3.0406877253553835,Rb4Ba4P4O16,mp-17832
0.7854999999999999,-1.5271809803571428,Ba4Er8Te16,mp-17928
2.1739,-2.912823986964287,Ta4V4O20,mp-18137
0.5772999999999997,-0.468203983388889,K12Na8Sn4As12,mp-18447
1.7838,-1.1320725291044065,Rb8Cd12S16,mp-18556
1.2563999999999995,-2.030469005740001,Na1Mn1O2,mp-18957
2.1603000000000003,-3.00962112875,Ba1Sm2Ni1O5,mp-19199
0.01729999999999965,-0.8485901736666662,Gd4In2Pd4,mp-20654
0.011299999999999422,-1.0903875383333341,Eu2As2Pt2,mp-20732
1.5605000000000002,-2.9442433847500005,Y4Fe4O12,mp-20783
0.851,-1.8796987776562504,Er8Se12,mp-209
3.7435,-1.9915461172527475,Ni6P4O16,mp-22697
4.069,-3.612845799836668,La2Cl2O2,mp-23025
1.7095,-0.9001273627326388,K2Se1Br6,mp-23036
2.9895000000000005,-3.4807413090033337,Gd2Cl2O2,mp-23050
5.9272,-2.9367637872365275,Mg12B28Cl4O52,mp-23087
1.996,-0.2871157114999999,Ge8I32,mp-23266
5.2275,-2.8900457648463638,Ca8Cl12O2,mp-23326
4.8462000000000005,-3.132647636991876,Na2Ca4Si6H2O18,mp-23792
2.4167,-1.0912140124422225,Co1H4Br2O2,mp-24410
2.5195,-2.4072563947925394,Ba4V4P8H16O40,mp-24598
0.7512000000000001,-2.644593840536607,Li2Mn2P2O8F2,mp-25410
3.5473,-2.790567716758823,Na8Sn6F20,mp-27310
3.4408000000000003,-2.007098094816667,Sn4Cl4F4,mp-27373
1.3119999999999998,-1.7434383327140004,As2I6F12,mp-27445
0.006299999999999972,-1.4422638170560005,K4Cu4Cl12,mp-27450
2.7154000000000003,-2.369784885503248,Cd4P4O14,mp-27686
3.9056,-1.4424730655700002,Ga4Sb4Cl24,mp-27735
0.8384999999999998,-0.6900832274553578,Tl4Sn4S6,mp-28011
2.5146000000000006,-1.5614070471733337,Al2Cu2Cl8,mp-28020
0.9091000000000004,-0.4124692857142861,Tc8P32,mp-28026
1.1995999999999998,-1.0347369347121718,Ba16Sb16Se44,mp-28238
1.5513999999999997,-0.3229100146540181,Tl16P8Se24,mp-28394
0.000399999999999956,-1.106749428,Pr4Ru1I5,mp-28736
0.7341000000000006,-1.9492193408333336,Ga4Te2O12,mp-28931
3.0428,-2.9989838046527786,Li8Ti4O12,mp-2931
2.1629,-0.61808585484375,Al2Se2Br14,mp-29408
2.5893,-1.0630803772384274,Na8B8S20,mp-29411
2.189,-0.6988485090909087,Ta2Te2Br18,mp-29716
1.3805999999999998,-0.8089326005906349,Cd32P16Cl24,mp-29746
0.019299999999999876,-0.40089654716666706,Sr32Ga28,mp-30667
2.1668000000000003,-0.630946217777778,Tl4Te2Br12,mp-31076
3.9289,-2.628837594877874,Rb6B6O12,mp-31358
2.8582,-2.232909068000001,Na4Ga4O8,mp-3338
5.0743,-3.6100740029262495,Er6Pb8F34,mp-34580
1.3178999999999998,-1.6887236557142842,Co4Sn2O8,mp-36028
1.6725000000000003,-1.7862793214062505,Nd1Tl1S2,mp-3664
0.7843,-2.3154989089375007,Sc8S12,mp-401
2.3613000000000004,-3.1470915697303963,Cs2Ti2Co2O2F10,mp-40502
5.9956,-2.950370872095,K1F1,mp-463
0.08289999999999997,-1.7410675003571423,Sr4Tl8O16,mp-4655
4.8355000000000015,-3.39535851515625,Al8Si4O20,mp-4753
0.0012999999999987464,-0.5711734912499997,Ce1Al5Ni2,mp-4817
0.6481000000000003,-1.2331939999399992,Ba2Ce2N4,mp-4887
3.3711,-0.9692040777377772,Li12B4N8,mp-5001
2.7686,-2.5479295113888902,Mg1V2O6,mp-504510
2.1393000000000004,-1.698538903639375,V4As8H16O36,mp-505074
1.4650999999999998,-0.8790845348111049,Cs8Sn4S56,mp-505141
0.00730000000000075,-0.8319666856593408,Pr4Ni14P8,mp-505805
0.5157,-1.5150402597772998,Cs8Co4O12,mp-540730
0.9558,-1.0079063281562508,Na2Sb2S4,mp-5414
1.9552,-1.797880098750001,Ba8Sn4S16,mp-541832
2.5266,-1.9886735378750005,Li12Fe8As12O48,mp-542008
1.2236000000000002,-1.4411908980121098,Rb8Ti6S28,mp-542067
5.4436,-2.8809176305030353,K2Sm2P6H2O20,mp-542266
0.3843999999999999,-2.3509017772300003,Ba12Na4Mn4Ru4O34,mp-542399
2.8974,-2.297764784191177,Gd4Te8O22,mp-542515
1.7308000000000003,-2.782409221500001,Ba2Nd1Bi1O6,mp-546321
1.256,-1.3397944383928564,Nb1Tl1Br4O1,mp-551826
0.0517000000000003,-2.8913687258141527,Na6Nb8P5O35,mp-553959
1.908,-1.6460288106333336,K12Na8In4O16,mp-553975
4.5774,-3.2261074923109527,Ca8B4Cl4O12,mp-554263
0.4246999999999996,-0.745989920781251,Tl1Bi1S2,mp-554310
2.8188,-2.4256390203766665,Tc4Sb4O8F32,mp-555059
3.4975,-2.513566419788588,Cs2Li10B4O12,mp-555082
3.7852,-2.910870580542857,Ba6Bi4P8O32,mp-555231
3.6997,-2.52326986576381,Sn4P4O12F4,mp-555838
2.3631,-2.6651749026661538,K4Cr6Cl4F12,mp-555898
2.5312,-2.810477363417083,Ba10Re6Cl2O30,mp-556647
3.3773,-2.908386489717816,Rb10Nb10B20O60,mp-556808
3.3299,-2.061776908392857,Tl8Ni16P16O60,mp-556824
4.5053,-2.57930165583009,Mn4P16O44,mp-557042
3.4388,-2.3930506925576926,K4V2O7,mp-557105
2.5098000000000003,-2.4335623075,Mg8V16Pb8O56,mp-557238
2.4098,-3.6943713821425,Zr1V1F6,mp-557686
2.381,-2.8996407972416662,K12Nb12B8O48,mp-557711
2.9085,-1.2695513385795458,Sr2Li2B6S12,mp-558219
2.2666,-1.5036514586513154,Zn2Fe4Se8O24,mp-558345
5.0449,-3.3202705078423134,Ba10P6Cl2O24,mp-558349
4.9874,-1.4854297452084375,Ni4H48S4O40,mp-559054
0.5945,-1.6801602771920003,K4Na4Mn4O8,mp-559242
3.0860000000000003,-3.4537593648284624,Nd2Ta2Cl2O7,mp-559243
4.0985,-3.016876477755379,Cs2K1Fe1F6,mp-559454
1.3055000000000003,-3.1349464237447933,La20Ti8Cu4S20O28,mp-559474
5.1674000000000015,-2.6977819287108846,Na12B4P8O32,mp-559783
2.0163,-0.8528724248214294,Ge4Pb8S16,mp-560370
4.3483,-2.533371837314,K1Ni1F3,mp-560976
1.1953,-0.963487799774822,Nb2P8S20Cl10,mp-561160
1.9689000000000003,-0.928295109770409,Y2Ag6P4S16,mp-561467
2.2692000000000005,-2.17641599408867,Cs24Al8O24,mp-562441
1.9101,-1.6122834875390637,Cs2Mn8Cl18,mp-567499
0.21960000000000024,-2.2067205843781443,Cs6Ti4Cl18,mp-569484
3.9744000000000006,-1.551551225667778,Sr8Li4C4Br12N8,mp-569782
1.4581,-1.5622944978616662,Cr6Cl18,mp-569890
0.1584,-1.2915267980418184,W2N1Cl8,mp-570568
0.11350000000000016,-1.4069579941666668,La8Te16,mp-571576
4.356699999999999,-3.693242744750001,Nd2Al2O6,mp-5899
2.366,-2.352114820348889,K2Ni1F6,mp-605034
4.0064,-1.9070257807730275,Tl8Cd8S12O48,mp-6067
0.2641,-1.665093751632922,Ba30Zr28Se84,mp-620609
1.785,-1.9071685558312248,Cs5Nb2S4Cl9,mp-621112
3.2084,-2.8242556202999998,Na12Sc8V12O48,mp-6213
2.5863000000000005,-2.545912918068181,Dy4Fe4Ge8O28,mp-622558
4.0949,-1.5318737082611493,Cs1H3O2,mp-626417
1.9975,-0.5955975948475286,Cs3Li3H12N6,mp-642740
4.4775,-1.902740247306364,Li8H6Cl2O6,mp-643259
5.0845,-2.245236883273999,K2Al2H4C2O10,mp-644285
4.267899999999999,-1.0885180472698641,Sr24P48N96,mp-645364
0.5972,-2.329801015202382,Re8P8O44,mp-647218
0.6263000000000005,-3.267050451175647,Eu10P6Cl2O24,mp-647532
1.9165,-0.8217464406631945,K4Pt2S30,mp-652663
0.8906000000000001,-0.11177882487351166,Ag36As12Se36,mp-662599
1.5440999999999998,-1.19819832843662,Rb2Nb4P2S20,mp-6708
3.4083,-1.5745109711269396,Rb12Pr8N36O108,mp-679928
2.0983,-1.545538642395833,La8Sb8S16Br16,mp-680334
4.5304,-2.2923229403814664,Na12Mg4C8S2O32,mp-6892
1.5419999999999998,-2.4702843871425,Cr1Ni1F6,mp-690539
2.4533,-2.501191492142858,Cr8P16Pb12O64,mp-704115
3.1404,-2.0648678387782358,Na2Gd2Re8H16O40,mp-707097
4.7984,-2.3431919334500004,Na7Al1H2C4O12F4,mp-707443
2.4647,-2.261591251898148,Cd4B4O10,mp-7210
4.1699,-2.135282255668182,K12Bi2H6Cl16F8,mp-723540
3.2604,-1.8967889680209196,Ba12In8H48O48,mp-740719
0.8676000000000004,-0.3734147020714285,Na8P8,mp-7440
3.2141,-3.5369778472115367,Y2Ta6O18,mp-752515
0.5698000000000003,-1.3031689992250002,K1Li1Mn1S2,mp-753940
4.061,-3.2575628880000003,Na1Lu1O2,mp-755311
0.12539999999999996,-0.9479703471428574,Cd2Ni4O8,mp-756341
5.7824,-2.64661551902226,Rb4B8P8H4O36,mp-758281
3.3829,-3.2518368471625,Sr8Cr4C4O12F20,mp-766492
5.2604,-3.0614688291388887,Y4B20O36,mp-768961
3.3039,-3.8446899547395823,Sm8Ti4O20,mp-770806
3.1175999999999995,-2.6944581210000007,Er6Sb10O24,mp-772087
3.5785,-2.8763730399999994,Er2As2O8,mp-772156
2.7449000000000003,-2.7977746383550013,Na9Li1Fe10Si20O60,mp-775304
5.2234,-2.7957013138950897,Ba4P16O44,mp-779518
5.681100000000002,-3.1422448161904755,Al1P1O4,mp-7848
3.0041,-2.9858622294612083,Rb1Gd1O2,mp-7976
4.0897,-2.966389853678044,Cs1K2Sc1P2O8,mp-8564
2.3360000000000003,-1.3439181140792298,La8Si16C4N24,mp-866650
0.9356,-0.3668803566122451,K4Hg1P2,mp-8753
5.2639999999999985,-3.2177533148978577,Ba8Y4C8O24F12,mp-8985
2.1042,-1.5010433453566658,Pr6B6N12,mp-9028
0.5791000000000004,-2.4800984259375,Tb8S12,mp-9323
5.2804,-3.30029294202174,K2Ca18Mg2P14O56,mp-9468
1.5833,-0.8564161015000001,Na1Ca1As1,mp-961685
2.3727,-1.9552879221691173,Re4S4O26,mp-974650
2.0601000000000003,-1.126689022427999,La4Mo4N12,mp-989631
2.864,-2.9011802129758326,Nb2Ag2F12,mp-997394
0.7089999999999996,-1.0702562831250004,Sm1Tl1Te2,mp-999132
2.4618,-2.7578978140175003,Zn1Mo1F6,mvc-14714
5.402900000000002,-2.811276941045918,Li16B24P8O64,mp-1020015
3.8131,-2.6860230281410256,Sr4Ge8B8O32,mp-1020611
0.9322,-0.786220458137931,Rb2Te2Pt1,mp-1070498
0.6114999999999995,-1.244523738333334,Ba2Tb2Cu2Te6,mp-1095403
3.4958,-3.879493577386365,Tb6Ta2O14,mp-1101314
0.09289999999999933,-0.7190547081411641,Cs2Mo6Se6,mp-1104663
0.03819999999999979,-0.1569155206249997,Pr12Ni4,mp-1106122
3.9028,-2.3597596005060004,K2Na1Sc1Cl6,mp-1111621
4.8953,-2.46892965344738,Cs2Li1Sm1Cl6,mp-1112671
0.0018000000000002456,-0.3402943783333328,Lu1Ni5,mp-11491
3.5636,-2.019892731222426,Sc8Se12O48,mp-11673
3.4081,-2.704959691721744,Cs4Ti2O6,mp-1178403
1.4586,-1.791981786041666,Cu8Re8O32,mp-1181782
0.17239999999999964,-0.3606854295833335,Li2In1Bi1,mp-1184972
0.18340000000000026,-0.4098601041666665,Ho16Ga6Co2,mp-1191834
3.361800000000001,-2.691843414,K2Ho2W4O16,mp-1192188
2.549,-2.3963537869785188,Na6Pt3F18,mp-1192379
5.1796,-1.6231920492649592,Cs4P4H8O8,mp-1192733
1.4314999999999998,-1.948168668125,Sr4Er8Se16,mp-1193520
2.6515,-1.2585517722583128,Cs12Sb4S12,mp-1193894
4.2337,-2.9218663416666666,Ba4B12Pb2O24,mp-1194549
4.4331,-3.3475128790850013,Ca2La2Mg2Al4Si6H2O26,mp-1195311
2.1056,-1.0462823435095594,Rb8Ge2P8S24,mp-1195703
4.751099999999999,-3.5862001983072918,Pr24Si16B8O80,mp-1196034
3.5157,-1.7090196653125007,Ga16Se16O56,mp-1196063
4.793,-3.3392965899918767,Cs16Er8Si32O80F8,mp-1196674
3.5537,-2.363681117140963,Rb8Bi4Mo4P4O32,mp-1197894
5.7719,-3.0640171411675823,Lu8P24O72,mp-1198201
5.6209,-2.925944780587302,Na4Sm4P16O48,mp-1200123
4.4324,-3.310624619138889,K8Hf8O20,mp-1201301
1.2713999999999994,-0.19788138765086227,Cs4P28,mp-1201790
3.2689,-1.566875837953076,Tb4N12O36,mp-1202556
1.2913,-2.3430796109520005,Tc8F32,mp-1203061
3.4474,-0.42651198836184856,Cs6La2N36,mp-1203144
5.8056,-0.4388079057376001,Ba2B24H24,mp-1203559
1.4308,-1.8972691642162158,K2Pd1S8O26,mp-1203991
0.027499999999999858,-0.30569979253521123,Er26Zn116,mp-1203997
0.109,-2.2217515507411765,Gd6Co1Cl10,mp-1205464
3.7457,-1.6389000780689655,Rb2Sr2I6,mp-1205862
2.8435999999999995,-3.4852400501136382,Tm6Sb2O14,mp-1207835
3.1777,-3.5512834310294448,Tb2Ti2Cl2O6,mp-1208319
1.6764999999999994,-1.5303851478571426,Sr12Sb4I12,mp-1208807
1.2658,-0.6640261818577776,Sr4H12Pt2,mp-1208839
3.9843,-3.809534703625,Sm12Sc8Al12O48,mp-1209040
7.529,-3.9207170708316483,Rb2Tm2Be2F12,mp-1209090
0.07580000000000009,-2.5083384907390553,Rb4Ga4Ag4F24,mp-1209226
3.3963,-2.486963418333333,Pr2Tl2W4O16,mp-1209389
0.6197999999999999,-1.3861121302770942,Rb4Cd4O6,mp-1209499
2.1331,-3.205045801875,Sm12Sc8Fe12O48,mp-1209643
3.7841,-2.88454145045,Na2Nd2Mg2W2O12,mp-1210016
1.8752,-1.67291837125,Na5I1O6,mp-1210180
5.4068999999999985,-3.1112101846994036,Na2Ca2Al2P2H2O10F4,mp-1210199
0.3533000000000001,-0.2818062454999996,Re12Br28,mp-1210365
2.5365,-2.995272960793334,Li2V2Cd2F12,mp-1210866
0.09609999999999984,-1.1575617611309528,Li1Cr4In1S8,mp-1211182
4.9723000000000015,-2.9678699128775503,Na24Ho8P16O64,mp-1211201
5.2334999999999985,-2.725548852725,K4Sr8Cl20,mp-1211382
2.219,-2.6438029622140005,Li12Ni4F24,mp-1211465
1.1305999999999998,-2.6491445880375,K4Eu8Cl20,mp-1211620
4.9508,-0.3332815164094439,K6Tc3H27,mp-1211633
1.9272,-3.1017536079239134,K4Pr2Nb10O30,mp-1211647
3.4661,-1.7186710524366664,K2H16W2N4F12,mp-1211841
4.7976,-2.3185632138809518,K12Li12W12O48,mp-1212005
1.3171,-2.075068044090606,In2Ni2Ag4F14,mp-1212006
4.9106,-2.566267816714224,Cs8Ho4Cl20,mp-1213722
1.9918000000000005,-1.5299537900000002,Ca12As4I12,mp-1214087
0.5764,-2.9681131420833333,Ca10V6O26,mp-1214138
5.1496,-2.8151087449621053,Be12Tl8Ni8F48,mp-1214337
2.4312,-3.2940521693140012,Ba3Ta2Mn1O9,mp-1214505
2.0679,-2.4120596657988713,Tl4Mo8P12O52,mp-1217181
0.023499999999999854,-2.53967331375,Sr4Fe3Mo1O12,mp-1218549
5.4426,-2.172334617099559,Rb6P8H18O32,mp-1219662
5.2928000000000015,-2.1685671498972368,Pr2H6S6O24,mp-1220028
4.4723000000000015,-1.2738057231915,Pr2H36Br6O36,mp-1220119
2.2640000000000002,-1.5953047414500006,Na1Bi3Br2O4,mp-1220821
3.2242999999999995,-2.586797086625,Na1Er1Mo2O8,mp-1221047
0.488,-0.5346488002678568,Mn1Cr4Cd1Se8,mp-1221753
2.5267000000000004,-1.096189900410223,Mn2Zn8I20O60,mp-1222103
3.4577,-2.4719994655555557,Li1Mg4Al1Mo6O24,mp-1222638
0.18299999999999986,-0.7831195133571427,La1Zn1Cu1P2,mp-1222744
1.2816,-0.5889328725746529,K8Ag8Sn8Se24,mp-1223690
2.5804,-2.1543689925714284,Hf1Tl2Fe2Mo6O24,mp-1224453
3.4126000000000003,-2.010676003686924,K10Mo16As2H12O64,mp-1225259
2.2202000000000006,-2.0171827157142865,Er16Pb8S32,mp-1225956
1.4727,-1.8095188283748045,Cs6Sm14Se24,mp-1226868
4.792599999999998,-3.4079417605892863,Ca20Si4P8O48,mp-1227400
1.7806999999999995,-1.4965884765000002,Bi1Pb1Br1O2,mp-1227444
1.7913,-1.1072151868678162,Cs2Pr2Cd2Te6,mp-12494
2.0535,-0.8729017642000002,K4Zn2Te4,mp-12535
0.005599999999999382,-0.6072274491666665,Mg4Pd8,mp-12741
4.7083,-3.0997279513970595,Li12Pr8B12O36,mp-13772
2.9373,-0.9751716376683331,Li24Al8N16,mp-13944
2.112,-2.3188708214129057,Ag4Mo8P12O52,mp-14973
4.4546,-3.559802068416667,Ca12Zr4Si8O36,mp-15004
0.4882,-0.4006496141562501,Cr4Sb4Se12,mp-15236
0.6244000000000001,-0.9662739435714284,Sr6As8,mp-15339
5.2029,-3.2624929124270827,Na4Li4Zr4Si24O60,mp-15543
2.8445,-3.320603363409092,Sr16Nb16O56,mp-15590
0.4799,-0.8181346327968749,Na4Se4,mp-15668
0.21039999999999992,-2.68307769167313,Na12Ti4P32O92,mp-16140
2.6451,-3.5510555805316097,Ba12Y4Ti8O34,mp-16663
0.2720999999999996,-0.8461019620000002,Ba16Sb24,mp-16922
2.9895,-3.127369286810345,Ba6Lu2W3O18,mp-16928
1.0497,-0.5067142259833337,K4Hg6Ge4Se16,mp-17307
0.6629999999999998,-0.6269294249038462,Ta4Pd6Se16,mp-18010
2.4229,-1.147896965442667,K4Ag4N8O24,mp-18429
6.0508000000000015,-4.2513970773144445,Sm4Zr4F28,mp-18506
0.14480000000000004,-1.334760411309167,Ag6F18,mp-18536
3.1515000000000004,-1.7025431796428572,Tl4Zn4As4O16,mp-18578
2.1076,-1.1114752022656251,Ni2Se2O8,mp-18817
3.069,-2.783558701412338,Ba2Co2P4O14,mp-19278
1.6686,-1.8963425985714284,Zn2Fe4O8,mp-19313
1.5293,-1.513615392642858,K8Fe4O16,mp-19320
3.0546,-2.103741953125,Li40Fe8O32,mp-19511
1.7735999999999996,-1.7462460049999995,Sr1Te1,mp-1958
2.3933,-2.5915497976584203,Cs4Fe4P8O28,mp-20113
4.2808,-2.56899713031994,B3P3Pb3O15,mp-21266
0.40500000000000025,-0.2062674511099143,Rb16Pb16,mp-21525
0.1482000000000001,-0.43316160093055583,Na24In8As16,mp-21622
1.0475,-1.8067794735416665,Li4Pb2O6,mp-22450
1.2126,-1.546935037425624,Mn4Se4O16,mp-22579
2.4226,-0.6753556633333334,Pb1I2,mp-22883
3.8455,-1.0652056248500004,K1Br1O3,mp-22958
2.6417,-1.7001306961973792,Cs1Ge1Cl3,mp-22988
1.3567999999999998,-0.4684850841666668,In2I2,mp-23202
3.415,-1.059695167083333,In2I6O18,mp-23400
0.8221999999999999,-0.9337767100437036,Re1Ag2Cl6,mp-23472
3.407,-2.5240202870343134,B20Pb8Br4O36,mp-23623
3.4006,-2.5640932662173914,Na8Al6Ge6I2O24,mp-23651
5.5185,-2.6415824444308336,Ca2B16H8O30,mp-23701
4.8372,-2.9060827757548244,K2Sc2B2P4H2O18,mp-23808
1.3727,-1.555611658046875,Ba2S6,mp-239
3.1435000000000004,-1.217944922905,Sc4H12Br12N4,mp-24215
3.3,-1.3977724712284485,Rb24Bi8Br48,mp-27147
0.031500000000000306,-0.03328769234693851,Sn4P3,mp-27410
3.8319,-0.6104180333200001,Ni1Cl2O8,mp-28138
0.8264,-0.34704145018367377,K4Cd1P2,mp-28302
0.2976000000000001,-1.9577267714285715,La4Br10,mp-28571
2.9241999999999995,-1.7591599605833323,Na8Te8O20,mp-28713
3.3848000000000003,-1.34509677796875,Nd3Al9Br36,mp-28757
1.8841,-2.477144332608696,Ba36Au8O48,mp-28788
2.1863,-1.0212185691750004,Na16Hg8S16,mp-28858
4.872999999999998,-2.9280121213,Ba2Te4F20,mp-29177
2.5853,-3.5473269558333334,Ba8Ti26O60,mp-29298
1.7080999999999995,-0.4140592549999997,Ga1Cu1I4,mp-29403
0.242,-0.44833014554687534,Tl1Bi1Se2,mp-29662
1.1710000000000012,-1.5824684665233335,La24B16N40,mp-29990
1.9127,-1.3098318908925002,Au2Br2F12,mp-30159
1.43,-0.691692500625,Al2Hg1Se4,mp-3038
1.8767000000000005,-1.2319506596180558,S2I4O12,mp-30984
3.2575,-2.324321551838236,Tb4Te8O22,mp-31245
2.4555,-1.39900191197,K1N1O2,mp-34857
1.1609,-1.040281403125001,Hg24Te8O48,mp-3538
0.3320999999999996,-0.9058890933333336,Tb1Ni1Sb1,mp-3716
1.3673999999999995,-0.968830176661875,K8Re12C4S20N4,mp-39938
5.8067,-2.804164593303572,Si4P8O28,mp-4769
0.03589999999999982,-0.34685027874999924,Sc2Al6C6,mp-4798
3.4078000000000004,-2.5278531449456527,Zn4B6O13,mp-4812
1.4514,-3.1199042370833343,Ba1Gd2Co1O5,mp-505313
2.0561,-3.0304302137499994,Ba2Gd4Pd2O10,mp-505438
0.0015999999999998238,-0.5391557862499999,Ce3Ni2Sn7,mp-510126
1.5807000000000002,-1.5839565139007905,Co8Hg8H8S8O44,mp-510344
2.7936,-2.574919093457351,Rb4Sr2V8O24,mp-510558
5.8026,-3.5066768395238093,Y2P2O8,mp-5132
3.0761,-2.4735779644230766,Sr4Ga8Ge8O32,mp-540621
3.2395,-2.0877495154,Na8Li12Ga4O16,mp-540945
1.9401,-1.5518722344406817,Rb8Hf6S28,mp-542012
3.5826,-3.5779425079166662,La2Nb2O8,mp-542724
3.5327,-3.5004556039979997,Ca14Nb2Si8O34F2,mp-542863
1.5104000000000002,-1.3133680690576923,Fe1H12Pt1Cl6O6,mp-542912
0.030999999999999694,-0.5925332721428569,Eu4Ga18Ir6,mp-542930
1.2094999999999994,-2.41848020822,Nd1Bi2Cl1O4,mp-545529
2.2347,-2.1240860169531244,Ba2Zn2S2O2,mp-548469
1.9040000000000001,-2.5325367032505564,Sr2Fe2S2O1F2,mp-549237
2.3073,-2.28606906625,Ba2Cu1Br1O2,mp-552934
2.1505,-1.5313370592049818,Rb2Sn2I2O12,mp-554199
2.002,-1.8273511642708329,Tc8Bi24O64,mp-554435
2.6291,-1.3286094250657472,K4Sm4P8S28,mp-554581
0.4022000000000001,-2.4742756968189656,Ba12Na4As4Ru4O34,mp-554687
2.3193,-2.354413230803436,Rb4V5Cd1Cl1O15,mp-555007
5.5996000000000015,-3.1398449178030305,Ba2Be4B4O12,mp-555070
5.1719,-3.0397791355155563,K4Na4Sn4F24,mp-555076
2.5161,-2.5373904987499984,Nb4Bi4O16,mp-555100
0.5187000000000004,-0.9147784225829746,Rb6Cu4Bi10S20,mp-555113
5.424600000000001,-3.5274339146625,Sr8Al4C4O12F20,mp-555467