band_gap,formation_energy_per_atom,full_formula,task_id
2.9299000000000004,-3.4013565791250016,Ca12Zr8Al4Fe4Si4O48,mp-1227925
4.8472,-2.8323714478965822,Cs12Mg12P36O108,mp-1229321
6.9181,-3.6743971583996546,Cs2Na1Al3F12,mp-12309
1.4287,-1.0299130794808216,Ti2P4S12,mp-13666
3.8267,-2.609630859305556,Al8C2O8,mp-13703
3.8221,-3.3242091855468754,Ba18Ho6B18O54,mp-14384
6.1125,-3.1007844972829663,Rb4Li2Ga2F12,mp-14638
0.6720999999999999,-0.41945577674999995,K1Na2Sb1,mp-15724
0.17969999999999994,-0.4173750533333334,Ba4Ca4Si4,mp-16253
2.3896,-1.567410045556123,K4Ba4P4S16,mp-17088
1.9885,-1.8597513491666668,Co4Mo4O16,mp-17289
0.1155999999999997,-0.9555440919230772,Ca10Ga4As12,mp-17558
3.229,-3.5139562477777786,Sr4Ta8O24,mp-17715
3.4758,-3.5064563125,Ca4Ta8O24,mp-18229
0.012800000000000368,-0.7117169583333336,Eu2Pd4,mp-1854
0.9581,-1.2615671231250003,V2Ag6O8,mp-18889
2.3281,-2.23518522775,Ba4Ni2Te2O12,mp-19011
3.7532,-3.0358450323076935,Ba3V2O8,mp-19365
0.048000000000000036,-0.9174550233333332,Eu2As2Au2,mp-19729
0.02080000000000037,-0.6674747211111113,Eu4In4Au4,mp-19901
2.1543,-1.7604050813888898,As2Pb1O6,mp-20015
0.6361999999999997,-2.2600232784577927,Cu4P8Pb4O28,mp-21533
3.1566,-2.617905418083333,Si12Pb12O36,mp-21723
1.2375999999999996,-0.5870862657812506,Ge4S4,mp-2242
0.005700000000000038,-0.7350926899999995,Eu4Si6Pd2,mp-22765
3.3556,-1.37388673432,Bi4Cl12,mp-22908
5.4505,-1.1218958687933334,Na2Cl2O8,mp-22968
1.6367999999999996,-0.5373763238541667,Sb4S4I4,mp-23041
2.3602,-1.652358334208334,K1As4I1O6,mp-23126
2.6349,-1.9751692413235291,Bi8Mo12O48,mp-23388
2.2616000000000005,-0.6857298524133336,Sr2H6Ru1,mp-24292
5.4859,-1.7580324726236105,H12S4O16F4,mp-24463
7.5969000000000015,-4.432800152142499,Pr6F18,mp-2651
1.7619999999999998,-0.5862554928660714,Hg2P2S6,mp-27178
4.7731,-2.2509411370057144,K2Mg1Cl4,mp-27207
0.0569999999999995,-0.5122086872727271,Nb6I16,mp-27772
0.04449999999999932,-0.4723993838888879,La8Re12B28,mp-27894
1.4834,-0.6661203470312507,Tl4Sb4S8,mp-28230
3.2823,-1.938532876367189,Sr4Se8O20,mp-28346
1.0590000000000002,-0.7484044535019532,K12Nb8Se44,mp-28428
0.8407,-0.15829191367647116,Re6Te14I14,mp-28464
0.4333,-1.5784361936666669,Na4Ir1O4,mp-28698
4.9511,-2.40920083936384,Ni4P16O44,mp-28957
2.274,-1.8343089608094487,Rb12Tl4Cl24,mp-29384
3.3919,-1.4715269360379462,Bi8Se12O36,mp-29833
0.004400000000000404,-0.3259941115384618,Te16Pd36,mp-29907
1.1041999999999998,-0.4129313384500005,K16Ga8Sb16,mp-30077
6.3063,-2.81578301325,B6O9,mp-306
0.010300000000000198,-2.235401262036667,Cu2As2F14,mp-31237
1.1568999999999994,-0.9382050359308338,In10S10Cl2,mp-31263
1.8994,-0.8221281191956843,K16P8Se24,mp-31314
0.2466999999999997,-0.1253647437619037,Cu4Sn1P10,mp-34126
4.5899,-3.09946987875,Li4Al4O8,mp-3427
7.8439,-3.2489731201544445,Na2B2F8,mp-3521
1.2904,-2.321237221768571,Na2H1F4,mp-37458
0.3309999999999995,-2.47444710375,Nd4Eu2S8,mp-37693
2.5783,-2.4502772925711107,K2Pt1F6,mp-3821
2.2791,-3.140187578765153,Na2Sm6Ti4Sb4O28,mp-40685
1.5382,-0.4146644524990535,Na4B4Se14,mp-5004
1.9799,-2.331286664702381,Mo4P4O22,mp-504196
2.3270000000000004,-2.7045476519444436,Nb8Co4O24,mp-504552
1.4564,-1.83056026915,Na8Li12Co4O16,mp-504854
0.009000000000000341,-0.3456871949999982,Gd1Ir3,mp-510400
1.5281,-1.805964543783784,Fe7As6O24,mp-510450
0.008700000000000152,-0.1931778062499996,Zn2Sn2As4,mp-5190
3.4196,-3.6246428506763153,Zr12Tl4F60,mp-530524
1.2721,-1.9484886472116671,Na4Zr24B4I10Cl46,mp-532604
2.2828,-2.024357047775736,Fe4S6O24,mp-540767
4.2293,-1.68496442884,Al4Ga4Cl16,mp-541111
2.5397000000000003,-2.6016895921428573,Ba4Cr8O16,mp-541137
1.4075,-0.5405633897342861,Na12Mo4N12,mp-541291
2.7934,-2.539206506808607,Fe6P18O54,mp-541930
4.1658,-1.8173491797604764,K8H12C4O18,mp-542043
1.9408000000000003,-1.2900755510416673,Tl16Te8O24,mp-543028
1.3597,-3.053256034616477,Sm4Se3O4,mp-550117
5.3708,-3.275450609737857,Ca8P4Cl4O16,mp-554081
2.0899,-1.1170242338061231,K12Bi4P8S32,mp-554216
2.6145,-1.851927162500001,Sm6Si4S16Br2,mp-555527
4.3718,-3.2821750100816325,Sr1Zr4P6O24,mp-555580
3.8046,-2.2205725332909516,Na8B4H4O12,mp-556125
2.3203,-2.421824643018,Cr16Si8Cl8O28,mp-556318
1.7517,-1.0748203623437504,Hg24As8O32,mp-556339
4.4147,-2.550888184859179,Rb4Zn6P8O28,mp-557089
1.4857,-1.4893981484248018,Rb4Ce2N12O36,mp-557282
2.7828,-3.041629601506,K4Mn4F12,mp-558046
8.057,-3.5633084720775754,Ba1B2F8,mp-558430
1.5229,-2.089442799938612,Pr16S12N8,mp-558617
4.1964000000000015,-2.6372596507737502,Bi3B6O12F3,mp-558753
4.5981,-2.665896219371409,Cs4Ge4B12O28,mp-558804
2.1934,-0.7404035107227891,Zn4Ag4P4S16,mp-558807
4.1788,-2.9913022130979234,Rb8Al8B8O28,mp-559284
3.5339,-1.688854380493055,K32Se32O80,mp-559568
3.1631,-2.7019015136573543,Na15Cr3P6O24F6,mp-559615
4.0975,-2.5821418877675004,Ni1Sn1F6,mp-560023
2.3986,-1.6789419274520776,Nb4P4Cl32O4,mp-560255
4.2043,-2.3152262270454544,Na20Y4C16O48,mp-560919
2.3474000000000004,-1.5478659089375002,Fe2Te12O26,mp-561036
4.0823,-3.737229014083333,Nd16Al8O36,mp-561084
4.3378,-1.7375972584957142,Cd2Ga2H28O14F10,mp-561283
0.8443,-3.0015775654821053,K8Mn6F24,mp-561377
5.1103999999999985,-2.22680370930388,Cs4S4O12,mp-561681
2.5043,-2.0371174743947367,K8Co8Mo12O48,mp-561987
4.2037,-1.8613133571471423,Sr2C1N2Cl2,mp-567655
3.2694,-1.326164868602667,Ba1Si6N8,mp-567771
1.3411000000000002,-0.15644436441071435,Hg36P20I24,mp-569421
1.7944000000000004,-1.1901393080949996,Sr2I1N1,mp-569677
0.3032000000000004,-1.0297410244504317,Cs2Nb8Br22,mp-569853
2.3123000000000005,-2.193634652142857,Zn2Ga4O8,mp-5794
3.2791,-2.9902166302500017,Tb12Ga20O48,mp-5965
2.4494,-2.5096345648055567,Na4Cd6Si6O20,mp-6078
1.6945,-1.395835006948,Cd2H4O4,mp-625094
2.9697,-1.5581097314479997,Zn4H8O8,mp-625830
2.9131,-0.6888787396204918,Cs2Al2H16N8,mp-634446
3.3033,-2.5031888442500003,Na4Zn2Si2O8,mp-6391
1.9462,-0.5124045082466662,Ba2Mg4H16Ru2,mp-643451
4.7366,-3.1415424900714286,Li12Sc8P12O48,mp-6565
2.8284,-1.8174344542733996,Cs8Te4O16,mp-669353
4.1370000000000005,-3.446150787387821,Ca6La6B10O30,mp-6709
1.601,-2.554745194166666,Al1Sb1O4,mp-676861
1.4741999999999995,-0.5984945176979167,Tl2Ag2As4Pb2S10,mp-677611
1.1296,-2.8713306205960003,Sr2La2Mn2Mo2O12,mp-690552
0.04289999999999949,-2.074029858582974,Cs1Ce1S2,mp-7015
0.18909999999999985,-0.3924068784635419,Tl2Pd4Se6,mp-7038
4.5335,-2.262638976059113,Cs4W2O8,mp-752508
2.5214000000000003,-2.5596142904166665,Sm2Ag2O4,mp-754110
2.9005,-2.5346318169444446,V1B1O4,mp-754594
2.5342,-3.2595521717500007,Lu4Cr4O12,mp-755471
2.2055,-2.3845068052770944,Rb8Be8O12,mp-755752
4.7113,-1.8343105808678253,K4Mg2H16C4O20,mp-757963
2.6652,-0.7440244693914286,K2Y2H16N8,mp-758742
4.9837,-2.4014172075237044,Ca4As8H24F72,mp-758814
0.8780000000000001,-2.3592142825919056,K2Li2Mn2P2C2O14,mp-761124
5.292000000000001,-3.2048140130535723,Hf4P8O28,mp-770092
2.6355,-2.2089317349815274,Cs12Y4O12,mp-770815
2.8953,-2.701162408984375,Ba6Ga8O18,mp-771132
0.3207,-1.0990715171428571,Cd2Cu4O8,mp-772099
2.5146000000000006,-2.11733643,Li4Zn6Ge12O32,mp-772981
2.5125,-0.34398495018327635,P8H36C12Br12,mp-779221
2.1416000000000004,-0.831059395625,Al2Zn1Se4,mp-7907
3.3858999999999995,-2.7313990077500008,Na2Be8Sb2O14,mp-8075
1.707,-1.0615424444660726,K2P2S6,mp-8267
0.3795,-2.5543664558228576,K4Cu2F8,mp-8388
0.8607,-0.5081622380833336,Na6Al2As4,mp-8543
0.19130000000000005,-0.6262416211111107,Dy4B16Mo4,mp-864993
0.2356999999999996,-0.37238542625000015,Li2Tl1Bi1,mp-865713
1.5645,-0.7266656893574996,Cr2H18Br6N6,mp-866468
1.4224,-0.7448379811908865,Cs8P4Pd2Se16,mp-866688
0.2408999999999999,-3.2647355321726432,Cs2Nb1F6,mp-8995
0.7030999999999996,-1.226040719591428,Ca6V2N6,mp-9029
2.309,-1.1706027763128597,Rb2Li2Se2,mp-9250
0.7959,-0.7437617468571431,Yb1Zn2P2,mp-9582
0.1748000000000003,-0.6066299977149994,Pr1H3,mp-981547
0.09909999999999997,-0.675800978541667,Ag2Pd2O4,mp-997038
3.6642,-1.6186431812413793,Cs4Ca4I12,mp-998428
1.0737,-1.9807140660880005,K4Mn12O24,mp-1016190
4.4190000000000005,-3.340371120798612,Ca16Al24S4O64,mp-1019575
1.2295,-2.9025875421218474,Ce8P32O96,mp-1019593
4.2332,-2.6643756412543858,K8Na4Zn4B20O40,mp-1019787
5.0298,-2.5259642643505416,Cs2Ca1Cl4,mp-1025185
0.7295999999999996,-1.073871086796875,Li2Nb2Se4,mp-1025496
0.6088,-1.681561205356665,Li4Hf8N12,mp-1029331
2.2801,-0.5856592198514251,Cs6C3N6,mp-1029699
1.3973999999999998,-0.9636998064950508,Cs4Ti2Cu4Se8,mp-10489
1.5244,-1.1151701476250004,Nb2S4Br4,mp-1079487
0.05590000000000028,-0.32397505791666664,Ca3Al7Cu2,mp-10876
1.2587000000000002,-3.3901382500841666,Tb2S2F2,mp-10930
3.9786,-2.8408166993389585,Y2Se2O6F2,mp-1101793
1.3637000000000006,-0.3836911453809525,P12Os3,mp-1103842
0.1187999999999998,-0.6367971140535715,K1Cr5Se8,mp-1104473
5.6135,-3.2220397929553792,Cs2Al1Tl1F6,mp-1111952
0.2572000000000001,-1.429867319241379,Cs2Li1Ce1I6,mp-1112680
0.8240000000000001,-1.0125618884080458,Cs2Ag1As1Br6,mp-1113578
0.009400000000000295,-1.2302399249999991,Gd4Pt4,mp-11428
0.2967000000000004,-0.9003981000000003,Y1Ni1Sb1,mp-11520
0.6642999999999999,-1.5988783076388888,Pr6C2Br10,mp-1179866
1.761,-1.3175142795590191,Cs10Tc12S16Br14,mp-1182756
6.657,-3.6620108031484997,Na5Hf2F13,mp-1189018
0.026699999999999943,-0.3194528962500005,Tb12Ru4,mp-1189033
2.1744000000000003,-1.1066288854583342,Na4In4Ge2S12,mp-1190145
1.3416,-0.9548798487676337,Rb12Hg2Se8,mp-1190907
0.0954000000000006,-0.6116554853966664,V12Zn8N4,mp-1191068
2.3949,-1.3332284681139583,Co16Se12Cl8O36,mp-1195181
2.5370000000000004,-2.7617526074625,V4Pb4O4F20,mp-1195912
2.926,-1.6718678338115531,Dy6H40N8O49,mp-1196453
5.1249,-2.4538947487662983,Rb8B28H20O56,mp-1197195
5.1222,-2.5945597441728823,K8B20H8O38,mp-1197401
3.5748,-2.649216996842541,Na8Li8Fe8P8O32F8,mp-1198378
4.1451,-2.645286124983333,Bi4B16O30,mp-1198385
0.6218000000000001,-2.2448543022504834,Rb4Cu6P8O28,mp-1198918
4.9923,-3.195743088735897,Ba4B4As4F40,mp-1198994
2.4523,-0.22291414957111044,H12C24N36,mp-1199197
3.9007,-2.8532595559206335,K4Sr2V2B10O24,mp-1200300
5.5651,-0.4522075616232094,Ca2B8H40N4,mp-1201177
0.02740000000000009,-2.3949714609221315,Nb8S8O45,mp-1202537
1.8806000000000005,-1.5670915566522217,Co8As4H4O20,mp-1202958
3.1587000000000005,-2.220390981987896,Zr4Te8Cl4O22,mp-1202980
2.2026000000000003,-2.6084730617331546,Rb7Dy1Fe6P8O34,mp-1203480
0.1576,-2.404086971974085,Tb4Nb4S14O60,mp-1204213
2.4985,-1.803924369816924,K2Fe6As8H4O32,mp-1204715
1.812,-2.8048001252281995,Cs2Re1F6,mp-1205774
1.939,-1.4768266479400003,K1Mn1I1O6,mp-1205906
1.3111000000000006,-2.4396364207200003,La1Bi2Cl1O4,mp-1205991
0.8816000000000002,-3.0425943300126663,Sr2Ti1Mn1O6,mp-1206645
4.404,-3.1897905595833342,Er2Br2O2,mp-1206859
3.3083,-2.6117193664880953,Tm4Mo8O30,mp-1208057
2.0772000000000004,-2.8540843567522387,Ta4Mn2P12O42,mp-1208509
0.2661000000000007,-2.1346561049375,Tb12Cr4S24,mp-1208516
4.3299,-2.6230645661224856,Rb1Sc1S2O8,mp-1209187
4.6282999999999985,-1.9618951625689651,Rb4Ca4Br12,mp-1209238
3.0683,-2.113215983571301,Rb4W6Se2O24,mp-1209461
0.17720000000000002,-3.273091826730666,Na6Ti2F12,mp-1210257
4.5123,-1.9948900101,K4Yb4Br12,mp-1211270
3.3793,-2.7538247936674884,K2Rb1Ho1V2O8,mp-1211709
1.2825999999999995,-0.9111854826014032,K6Sn4P10S36,mp-1211845
0.026699999999999943,-0.3037226539622637,Ho12Ta8Al86,mp-1212377
1.4361000000000002,-0.15846446018518529,Ge38As8Br8,mp-1212561
2.5911,-1.5093470983206272,Cs4Mo12Cl28,mp-1213536
1.7059000000000002,-2.4093583437707644,Cd10Fe4P16O56,mp-1214030
1.1296999999999997,-2.5001294375172742,Tb2Mn3Sb3O14,mp-1217720
4.2535,-3.575636645312501,Sr2Nd2Al6O14,mp-1218172
0.2241,-0.8462063968000001,Sr12Yb8Cd10Sb20,mp-1218660
0.4240000000000004,-0.5426882857968749,Sn1Pb4Se5,mp-1218958
4.4331999999999985,-1.2757082695039998,Sm2H36Br6O36,mp-1219120
1.9739,-2.0625469458180143,Sm18Al2Si6S42,mp-1219290
0.9385,-1.685213327249962,Rb4Tl1Sb1Cl12,mp-1219616
1.6390000000000002,-1.9636093678660709,Pr18Ga10S42,mp-1220132
2.7905,-2.6557478238612635,Na14Cr8P18O64,mp-1221035
1.0390999999999997,-0.11748410089285707,Mg3Si9B36C1,mp-1222229
4.181799999999999,-3.487860386835938,La2Mg2Al22O38,mp-1223152
2.0096000000000007,-2.095843025298913,La6Mg1Ge2S14,mp-1223466
1.6881999999999993,-1.6356425723705361,La18Al10Se42,mp-1223486
1.1222,-0.7983646549404766,In1Cu1Ge1S4,mp-1223929
2.8998,-1.3869571438559325,La6Pb6I26O80,mp-1227132
4.3767,-3.5948933323958343,Ca2La2Al6O14,mp-1227186
3.9052,-2.6936926323804538,Ca10As6H2O26,mp-1227603
2.452,-2.7834068645833336,Al7Cr1Bi4O18,mp-1228228
0.2239,-2.54414064425,Ba6Y2Ru2Pt2O18,mp-1228242
0.8541000000000003,-2.631993961527777,Ba8Sr4Gd4Co8O30,mp-1229271
0.16929999999999978,-0.6234394794444434,Nb16Si4Te16,mp-1232409
0.4579,-0.613454855,Sr4Ca4Ge4,mp-12418
3.0925,-3.674811830312499,Lu2S1O2,mp-12673
0.6974999999999998,-1.1696237501136373,Tl4Pt4O14,mp-13801
1.7808999999999997,-2.2303010741640006,Na1Tl2Rh1F6,mp-14037
6.4651,-3.7528579503488886,K4Hf2F12,mp-14128
4.0233,-4.1426040219999996,Lu16O24,mp-1427
0.9865,-0.461428141768473,Cs4P6,mp-14652
0.7906,-2.673718971412339,Sr4Cu4P8O28,mp-14931
0.3125,-1.8931915056562496,Sm8Se12,mp-15081
2.0005,-1.3896992371174577,Rb4Nb2Cu2S8,mp-15221
0.8486000000000002,-0.4787721749999996,As8Ir4,mp-15649
0.2433000000000005,-0.28287011346354163,Si2Cu4Se6,mp-15896
2.6505,-2.4005560847108853,Be12Ag12P12O48,mp-15919
4.9447,-3.0251869270204086,K9Lu3P6O24,mp-18150
2.2839,-2.9384377523144445,Er4Pt4F28,mp-18341
5.322800000000001,-3.136364737775975,Ba4Mg4P8O28,mp-18343
2.3437,-1.5619886515937504,K12Nb4S16,mp-18383
0.2264999999999997,-0.6521889762500006,Si4Ru4,mp-189
2.3763,-1.303035041992187,Co4Se8O20,mp-18973
3.9209,-2.5548166631632654,Li4Fe4P4O16,mp-19017
2.4709000000000003,-1.8971189941666668,Cd2Mo2O8,mp-19039
3.5047,-2.714932531666667,Ca2Mo2O8,mp-19330
2.8028000000000004,-2.3803789440760865,Co4B6O13,mp-19343
2.8661000000000003,-2.9063302847,Na2Cr2Si4O12,mp-19367
4.3435000000000015,-2.7348669441666664,Ca2W2O8,mp-19426
0.27949999999999964,-0.4934056816071433,Co4P12,mp-1944
3.0395,-2.8791974158925004,Mg1Pb1F6,mp-19734
2.0869999999999997,-2.1758620284523817,Fe4B4Pb4O16,mp-20028
6.6332,-1.787831279583333,C4O8,mp-20066
0.4679000000000002,-0.20934911773809614,In1P1,mp-20351
0.03960000000000008,-0.10961477999999997,Eu1Cu5,mp-2066
0.00820000000000043,-2.056937112142857,Gd2Cu4O8,mp-20707
0.06229999999999869,-0.25643094000000016,Sb4Ru2,mp-20928
0.2885,-0.5933610374999999,Sr4Ca4Pb4,mp-21166
3.1328,-1.9410588759765623,Pb4S2O10,mp-21497
1.3905999999999998,-1.5577118822772988,Cs4Pb2O6,mp-21521
0.007699999999999819,-0.11662004142857085,Ce4Cu24,mp-21708
2.3844,-2.5959042443750007,Ca12Fe8Ge12O48,mp-21971
0.00649999999999995,-1.1420203578571435,Pt4Pb2O8,mp-22048
0.0025000000000003912,-0.6618520233333337,Gd2Sc2Si2,mp-22480
1.0766000000000004,-0.08885591013227491,Ge38P8I8,mp-23420
4.9018,-1.2663341639237038,Mg4H48Br8O48,mp-24006
5.9617,-1.9016359893692591,Mg2H12S8O32,mp-24460
1.2244000000000002,-2.1731246357181817,Mn2Tl4H4O2F10,mp-24555
4.8354,-2.085028426047788,Zn2B2P4H8N2O16,mp-24657
4.7573,-0.9276919134210536,Zn2H16C4N8Cl4O4,mp-24664
2.5238,-1.0385004533333335,Li2Te1,mp-2530
4.742800000000001,-2.475323608227041,Li4Ni4P12O36,mp-26001
4.1176,-2.5225344448680116,Li2Sn4P10O30,mp-26949
1.3568999999999998,-1.6170084008888892,Na8Co2O8,mp-27224
0.20279999999999987,-3.4658891676544448,Na4Ti4F16,mp-27264
1.8927,-0.9275559561949996,Ir2Cl6,mp-27666
0.6893000000000002,-0.1015671366666666,Cu8P28,mp-28034
1.4933,-1.5965127327500004,Si2Hg6O7,mp-28712
6.9098,-4.024219784071112,K18Y18F72,mp-28726
0.6873,-0.5923955195000001,K2Li4As2,mp-28994
0.8759000000000001,-0.42216961427,Re12Te32Cl12,mp-29499
1.2894000000000003,-3.0401504974999987,Ca4Nb8O16,mp-29792
2.9055,-1.1545503459225,I4O8F4,mp-29946
2.5462,-1.2989462646269498,Rb12B4S12,mp-29977
2.676,-1.0533824937049996,Li16Ta4N12,mp-30129
2.2338,-1.4390308789772723,Bi16I8O20,mp-30130
2.9704,-2.1937345472416667,Sb8Br4F60,mp-30213
0.024599999999999508,-0.8515550833333331,Ho1Sn1Au1,mp-30390
2.3616,-0.5000462993749999,Ga4I12,mp-30954
3.2045000000000003,-2.520544779711538,Ta8Te8O36,mp-3180
6.6744,-4.39251452667625,Sr8Lu6F34,mp-35769
0.4859,-1.9387050091964289,Nd4Eu2Se8,mp-36407
2.9608,-1.3601008814062503,Li4Ga4S8,mp-3647
4.4407,-2.7234607646085713,Be4Tl8F16,mp-3733
2.0132,-1.2062379706562505,K12As4S16,mp-3797
1.3689,-2.7685668390960005,Ca2La2Mn2Fe2O12,mp-40066
3.458,-3.803637775,Ca4Sc8O16,mp-4056
0.9143000000000004,-0.3986769738809522,Na2Zn2P2,mp-4824
5.143,-3.0536879455303025,Mg6B4O12,mp-5005
1.0067000000000004,-1.843765933611112,In6Te3O18,mp-504908
2.4693,-1.4156202261646909,Cs2Ho2Zn2Se6,mp-505712
1.6704,-1.1300902737824077,Na32Ti8Se32,mp-505798
1.0827000000000004,-2.65307085945875,Y4Mn8O20,mp-510598
2.5486,-3.0556880815423293,K2Ti4P6O24,mp-541238
0.9231000000000004,-2.566614143999385,Cs4Mo4P8O32,mp-541428
0.5086000000000004,-0.44537664596354176,Tl2Pt4Se6,mp-541487
2.7892,-2.945020515863985,Rb4Nb11O30,mp-541806
3.0200000000000005,-1.7987561746842118,Na4Te8W2O24,mp-541917
3.0424,-0.600903780502,Na2C1N2,mp-541989
2.7027,-1.9554576288409096,K8Cr8O28,mp-542666
1.0626000000000002,-0.36802595749999983,Ga6Te6,mp-542812
5.0725,-2.1036064826734027,Rb8Be4H16S8O40,mp-542884
1.8251,-1.9637098242500004,Na4Co2Ge2O8,mp-545646
0.8338999999999999,-1.4373954459374998,Nb2I4O2,mp-549720
4.3422,-2.9647049571987187,Na4Al4B4O14,mp-554041
5.2051,-2.9941271018872544,Ca8B20Br4O36,mp-554056
3.1461,-2.6361093849700006,Li2Re2O4F8,mp-554108
0.6332,-2.8478806758493587,Gd4Ti1Se4O4,mp-554519
3.5187,-2.5534941228653856,K2Al2Sb2O7,mp-554959
2.532,-1.7940372003365908,Sb4S4Br12F24,mp-555288
3.0885,-2.2276633233004177,K8Mn2Mo8O30,mp-555534
2.1916999999999995,-1.6801166842447923,Ba12Sn8S28,mp-556291
2.4257,-2.344554650869961,Rb2Ni1F6,mp-556417
2.0527999999999995,-1.677876194750001,Cd4Bi2As2O12,mp-556653
3.1218,-2.616296982608696,Li8Al6Ge6I2O24,mp-557456
3.2914000000000003,-2.5113563836038093,K6Sn10Cl6F20,mp-557665
0.014800000000000146,-2.250989190749999,Eu4I4O2,mp-558258
2.6651,-2.5216496801672927,K2Mo4P6O26,mp-558283
1.9640000000000004,-2.5766962283506936,Cr6B14I2O26,mp-558442
6.0694,-3.561585040037083,Ba2Al2B2O6F4,mp-558491
4.7071,-2.50853360547619,Zn4P8O24,mp-558930
1.1032000000000002,-2.9833013113905054,Sr8Mn4P12O44,mp-559244
0.3186,-1.9480369717995,Sb8Cl4F68,mp-559349
3.4581000000000004,-3.8533931292045462,Pr4Zr4O14,mp-559426
3.0905,-2.1654099334642853,K16V16Cd16O64,mp-559503
2.8913,-3.1553946838587863,Ti20P16O80,mp-559530
1.6165,-2.8815690941135466,Rb4Cr4F20,mp-559677
3.0577999999999994,-3.4468217636746163,Pr2Ta2Cl2O7,mp-559702
0.00790000000000024,-2.295719810271164,Ba2V2Cu8P8O34,mp-559899
3.1219,-2.4058006924,Na8Nb4As4O24,mp-559968
3.4597,-3.2451231425,Ca4La4Ga4O16,mp-559969
3.8399,-2.6620077581537345,Rb4Dy4W8O32,mp-560148
4.5767000000000015,-3.2092241089979305,K9Sm3Si12O32F2,mp-560235
2.5309000000000004,-3.2198766080500008,Gd6Si4Cl10O12,mp-560513
1.3199,-1.4704764701562505,Cd2Hg4S2O12,mp-560904
1.7630000000000003,-1.6007372359615384,Co12As8O32,mp-562111
1.7603,-1.3868809535976658,Rb2Hg2Pd1Cl8,mp-568252
2.0166000000000004,-0.4790434472222225,In12Sn4I20,mp-568522
1.0028,-0.3766429137499998,Cd4Hg4As4Br4,mp-569454
2.8614,-1.4897182698350475,Zr4P8N4Cl44,mp-570966
0.4765999999999999,-1.1582630819409718,Na2Hf4Cu2Se10,mp-571189
6.7432,-3.6607959833555936,Cs12Al12F48,mp-572702
2.4286,-1.9587639019612075,Cs4Ga6As10O36,mp-572921
4.9546,-2.9545245812553795,Cs2K1Bi1F6,mp-573204
0.22079999999999989,-0.7253853706666666,K4Tc2I12,mp-573568
5.0176,-1.3362829311899986,Li2Si4N6,mp-5853
0.8691999999999998,-0.7642916167857147,Ba12Sn8P16,mp-601867
1.0935,-0.7755940994827583,Cs4Mn2Te4,mp-610744
1.9676,-1.941465376289063,La8Ge4S20,mp-622086
2.6003,-2.0035606081753574,Co8P4Cl4O16,mp-622183
0.09570000000000034,-2.8532920832499995,Ba2Y1Ru1O6,mp-6428
4.6548,-2.2283542585681815,Sb4H12O4F24,mp-643579
2.5518,-1.9475955866666663,Tl4Fe4Mo8O32,mp-645796
1.6351,-1.0168951021262504,Re12S16Cl4,mp-653579
3.9245,-3.5069830955300003,K8Ta8O12F24,mp-6651
2.9166000000000003,-2.415134365591836,Na4Cd4P4O16,mp-6684
2.8124,-3.7465405910288085,Gd6B4O12F6,mp-669375
3.3514,-1.261682474367816,Cs4Ga4Br16,mp-672251
2.8999,-3.0085565020576435,K8Ti4Al4P12O48,mp-677733
1.3152,-0.33341167883272044,Re12Se28Br28,mp-680015