band_gap,formation_energy_per_atom,full_formula,task_id
4.3479,-1.5258725144349998,Na8H24O16,mp-24193
2.7291,-2.528169657911147,Rb4Fe4B4P8H4O36,mp-24648
2.2107,-0.9563364572413792,Cs4Sn4I12,mp-27381
7.1148,-4.24460029246,Ca1F2,mp-2741
5.2861,-2.15225583434,K4Al4Cl16,mp-27755
2.2372,-1.8204308242575005,Na4Nb4Cl24,mp-28178
1.5353,-0.9196588330911112,Te2Au2Cl14,mp-28330
1.2867,-0.9887969943222856,P4Au4Cl32,mp-28387
2.5555,-2.224070605865455,Ba2Au4F16,mp-28719
4.4872,-0.2809888689758332,Si16H48S8,mp-29309
4.524,-3.146361415416667,Sm2Br2O2,mp-29327
6.9361,-4.285888119278572,K2Y6F20,mp-2943
0.5476000000000001,-0.2969241417187497,Bi2Te2Se1,mp-29666
1.9294999999999995,-2.3247087880468755,Ba15Pt6O27,mp-29787
5.7305,-1.1073000365487502,Lu2Cl6O24,mp-29789
4.8828,-1.1172671893612502,Pr2Cl6O24,mp-29887
3.5725,-1.4697479117424144,Be12N18O57,mp-30142
1.328,-0.6133776630654761,P2Au2S8,mp-30938
3.3649,-1.9730721490625,Zn6S4O18,mp-30986
1.5784,-2.055516686428571,Cd2Ga4O8,mp-3443
4.1342,-3.6783569492500003,Pr2Al2O6,mp-3466
5.226,-2.754123596666666,Li4B4O8,mp-3635
3.001599999999999,-2.895174885,Al4Co2O8,mp-36447
3.9662000000000006,-1.3648211505649996,Mg4Si4N8,mp-3677
5.1531,-3.3140138603296707,Ba3P2O8,mp-3857
1.1234000000000002,-0.8244586270064935,Na6Sr6Al2P8,mp-41095
2.9711,-1.3694238930649991,Sr4Si4N8,mp-4549
6.0219,-2.4250153777232137,Li8S4O16,mp-4556
7.0206,-3.1105543871603567,K1P1F6,mp-4608
0.19269999999999987,-0.28925729916666665,Ga2Ag2Te4,mp-4899
2.7237,-3.0501417996590914,Tb4Sn4O14,mp-4991
3.1093,-2.43393924599138,Cs4V4O12,mp-504651
1.5484,-2.811085551428572,Ca4V8O16,mp-504712
5.7588,-4.115726021684615,Ba2Zr4F20,mp-505400
1.9346,-2.0390895619502563,Ti1Mn1H12O6F6,mp-505405
1.0848,-0.2998402113375133,Rb24Sn6Sb36,mp-505490
0.011699999999999822,-0.6926606952150003,Gd6H18,mp-505686
2.1328,-1.9685337276785717,V4As4O20,mp-510763
1.9147000000000003,-1.9986512063333337,Na1In1O2,mp-5175
1.3599,-1.3078663207,K2Pd1O2,mp-540584
2.9006,-0.8347224501388887,In4Ga4Br16,mp-541283
4.5983,-1.952550450695384,Mg2Ge2H24O12F12,mp-541747
3.0293,-1.3353244806428577,K4Mo2I8O28,mp-542671
3.4479,-2.5676375058388894,K12Ti4O14,mp-5455
1.4326,-2.4933933235325,Tm1Bi2Cl1O4,mp-546082
0.6941999999999999,-1.2095180408809518,Ag16P4I4O16,mp-553924
2.9461000000000004,-2.480371486857143,K1Sb1P2O8,mp-554155
2.8827,-2.9244929472444823,Cs4Fe4F16,mp-554225
0.043299999999999984,-1.3070408874520785,Re4P4Cl32O4,mp-554317
1.8687,-2.294174744951389,K4V4S4O24,mp-554334
3.7922,-2.891507647577586,Cs8Si12Sn4O36,mp-554359
0.07719999999999994,-2.5611670410230256,K5Na1Ce2S6O24,mp-554603
4.6935,-3.581457094340829,Pr28B4P8O68,mp-554964
2.5636,-1.1857151534400003,Mn4I8O24,mp-554980
4.1634,-2.418333145795455,Ba8Br12O2,mp-555218
2.2201,-1.4106944246852688,K4Sm2P4S14,mp-555587
2.5426,-1.7016421202453589,Rb16Bi32O56,mp-556735
2.7615000000000003,-2.763699930810439,Al4Mo4P8O36,mp-557607
3.9604,-2.9280417605952382,Ca4Ga4B4O16,mp-557855
3.2922,-3.2481644643477767,Nd5As2Cl1O10,mp-558340
1.8293,-0.8360155452604161,Hg6Se8O10,mp-558456
0.7174999999999998,-1.932444493895789,Ca2Cu1Te4Cl2O10,mp-558663
1.8472,-2.2212789050843753,Sb8Cl4O8F44,mp-558692
2.3415,-2.0791878100390635,La8Si4S20,mp-558724
1.6896,-1.2933028835000004,K6Nd2As4S16,mp-559059
3.1334,-1.0350638145416664,Na2I6O16,mp-559065
2.7457000000000003,-1.255527128075278,Ag2Sb2S32F12,mp-559602
1.8442,-1.7298312918299374,Rb8Fe4O10,mp-559809
0.3057999999999996,-2.3788686899657145,Eu4Si8N8O8,mp-560341
1.9071,-1.9759195737900004,Sb2Cl2O4F12,mp-560354
3.3602,-1.3859570962292465,Rb2Zr1I6O18,mp-560365
4.4173,-2.947151480123153,Rb6Al4P6O24,mp-560459
3.9589999999999996,-2.071378744581,Al8Sn4Cl24O4,mp-560633
2.7168,-1.3461965569085703,Cs6Cr3N15O45,mp-560716
3.0965,-1.674651371901123,Sn2P4Cl16O6,mp-560891
3.9484,-3.118862754232965,Rb2Na1Cr1F6,mp-560936
1.7774,-1.6551205696052635,Fe12Te16O48,mp-561343
2.6717,-2.0604401197825,Li2Fe2Mo2Cl2O8,mp-561410
4.83,-3.1682746916899998,K4Be4Si12O30,mp-561549
2.4851,-1.8109100087884205,Sr4Co8As8H16O40,mp-562127
3.0943,-2.494854920794644,Na16Co8P16O56,mp-562194
4.5309,-4.180129739146667,Nd2O2F2,mp-5634
2.8043,-2.156249601583333,K8Te4W12O48,mp-566368
0.7984,-1.4993696120566655,Li4Eu8C4Br12N8,mp-568863
0.3689,-0.6433063534821429,Sr4P12,mp-569867
4.8781,-3.0105680943923296,Cs1K2Ho1P2O8,mp-573324
1.8907,-2.227736635741429,Li8Mg4Mn12O32,mp-581301
0.9362999999999992,-1.7887364128614285,Eu2C1N2Cl2,mp-582618
2.5604,-1.4306884732019702,Cs8Mn4Br16,mp-600186
3.4492,-0.7217190208333332,Al4Tl4I16,mp-607829
3.0707000000000004,-2.5893925542884295,K4Mn16P12O48,mp-6130
2.4914,-1.830802516530713,Cs6Cd6Cl18,mp-619015
3.7392,-2.367692387046429,Na2Sn8P6O24,mp-6226
2.9895,-1.6070454422899996,Na2H2O2,mp-626000
0.6342000000000003,-2.2881086524016223,Cs8K4Cu2Si4O16,mp-628617
3.2449,-1.953055888405,Ga4H4O8,mp-634326
5.1341,-1.6294462841471429,K2P2H4O4,mp-642648
4.0232,-0.495802599746667,K2H6Pt1,mp-643279
3.1072,-1.2880388612174998,H4Pb4Br4O4,mp-643727
0.19710000000000005,-1.6976161992621703,Cs4K20Ru8O36,mp-654335
0.3954000000000004,-0.8051869578571436,Ni3O4,mp-656887
4.8135,-3.2441794029833337,K4Zr2Si6O18,mp-6600
1.3163999999999998,-1.2134481906944443,Li4Mo6S8,mp-675779
3.0810000000000004,-2.001758016721026,Ti1Zn1H12O6F6,mp-685281
2.6817,-1.2929395235325003,K4Ge4N4O4,mp-6955
4.9166,-0.6903039707042578,Cs6B12H24S8Br2,mp-695929
0.8946000000000001,-0.22073413554687527,Ge4Se4,mp-700
2.8319,-2.148355198108108,Hf3Tl10Mo12Pb1O48,mp-705900
5.4938,-1.9283100641984527,Na8H16S12O48,mp-707470
1.0498000000000005,-0.5048858198333331,Na2Mg2Sb2,mp-7090
3.0706,-2.9787591814157577,Ca8Ti16H16O48,mp-709021
4.9743,-3.23247314726923,Na2Al2Si6O16,mp-721988
4.1099,-1.7360389364719049,Zn2In2H28O14F10,mp-729903
4.771299999999999,-3.71836264825,Sm4Al4O12,mp-7405
4.1736,-0.4180526056212068,Rb2N6,mp-743
0.04099999999999948,-0.027126293125000256,Zn8Sb8,mp-753
3.7914,-2.7229191107692308,Sr3As2O8,mp-755082
1.9968,-1.6507472285406404,Rb12Fe4O12,mp-756020
2.4031,-2.1197864031250004,Li4Co2Ge2O8,mp-756582
3.9374,-2.5497932205535725,Sn2P4O14,mp-757192
6.0788,-1.9311221350633327,B6H18O18,mp-759069
3.06,-0.6503618052124349,Li2P2H42S6N14,mp-760046
4.3715,-3.5505129420896298,Li4Ti2F12,mp-7603
2.3862,-2.5553004770000007,Gd6As10O24,mp-768273
1.4696,-0.9891589249066658,Ce2Cl8O32,mp-768918
2.1091,-2.7336762365546217,Nb3Co1P6O24,mp-771766
1.0933000000000002,-1.2687162993055552,Li4Ag4O4,mp-772290
2.6193,-1.9547550079615388,Na6Co2As2C2O14,mp-773177
0.7321,-1.6362847607812512,Li2Nb2S4,mp-7936
0.17079999999999984,-0.8029925012499994,Hf1Si1Ru2,mp-866062
2.2402,-2.124776319832974,Cs2Pr2S4,mp-9037
3.8666,-2.3155083369581275,Cs4Be4As4O16,mp-9113
0.8072999999999997,-1.3350839936979175,Hf2Tl2Cu2S6,mp-9396
0.04129999999999967,-0.2432972995238093,Ni30As12,mp-941
2.8366,-0.3899342740142856,Ca8Al8H40,mp-966582
1.2394,-0.34534456370238065,K4Ag2P2,mp-9778
2.8729,-1.5635079762893334,Li1Tl2In1Cl6,mp-989512
2.9442,-2.244847313313334,Bi2O2F2,mvc-11360
2.2978,-3.68075371085,Ca2V2F10,mvc-14225
0.8214000000000001,-0.6981889302968751,K2V2Cu4Se8,mp-10091
2.4689000000000005,-2.15022484986248,Cs24B8O24,mp-1019608
4.4199,-2.9262289692592587,Sr3Ge2B6O16,mp-1020650
2.9278,-2.0933241487694443,Ca8B4N8F4,mp-10233
0.31210000000000004,-1.5293873891066667,Li4Zr8N12,mp-1029297
0.07719999999999994,-0.918073173151206,Rb4V4N8,mp-1029312
0.69,-2.0142292040475,Sr2Zn2As2F2,mp-1080135
3.0681,-2.6928279278240743,Sc4Fe8B4O20,mp-1094074
1.0512,-0.259488889375,Tl4Hg6Se8,mp-1105692
2.9391000000000003,-2.794837260622046,Cs2In2F6,mp-1112960
8.7164,-3.1808801980949997,Li1F1,mp-1138
0.0057999999999998044,-0.6934139498214285,Dy2Fe2Si2C1,mp-11705
5.2696999999999985,-2.1426813126846267,Cs12Si6S36O126,mp-1182737
2.6677000000000004,-1.0474067528160718,Na2Al2P4S12,mp-1189227
3.1848,-2.1212786617745456,Ba2Br4F16,mp-1190125
3.3691,-2.688241511083332,K2Tb2W4O16,mp-1190561
0.4626999999999999,-2.0510406389583338,Sr4Fe2Cu2Pb4O12,mp-1191264
2.015,-2.540136042187501,Sr4Co2Ge4O14,mp-1191317
2.3498,-1.549415757518941,Ag4S4O14,mp-1192057
4.6293,-3.309408952623,Na5Sm4Si4O16F1,mp-1192338
4.8612,-2.987378440234693,K6Pr2P4O16,mp-1192352
2.4322000000000004,-1.1741625782021108,Nd4Tl4P8S28,mp-1194591
1.3706,-0.2695467524908089,Rh8Se36Br24,mp-1194813
2.9261,-2.8766231046960784,Na4Ho4B4Te2O20,mp-1194989
0.10400000000000008,-2.6438467889965223,K4Cu4Sb12F72,mp-1195095
3.3213,-1.4383836547870374,Sn4H24Cl12O14,mp-1197014
3.6198,-1.978324379182693,Bi24S24O108,mp-1197960
1.9443,-2.160930581286884,Tl4P8H4O28,mp-1199029
0.4981,-2.33995176306044,K4Fe4Cu4P8O32,mp-1199970
1.8052,-1.9520923642959769,Rb8Fe8As8O36,mp-1200007
1.4053,-0.1833996451852677,Cu12P32Se24Br12,mp-1200788
2.3545,-0.6266049411443744,Li30H18N16,mp-1201065
5.2901,-2.1884820700646554,Ba8Si8S48O168,mp-1201400
1.9062,-1.4899417678125004,Fe4Te12Br4O28,mp-1201424
1.408,-2.345390672587368,Sb4Os2O4F28,mp-1201470
0.5784,-1.9112125393946944,Cu6P6H6O24,mp-1201654
2.6493,-1.4713819909062504,Na24Ta8S32,mp-1202226
1.5598,-0.7425221595581902,Cs4Re12Se16Br8,mp-1202357
2.8685,-2.180289359344063,Na2Co2S2O8F2,mp-1205341
1.8404,-1.2613615624904218,Cs2Zr1I6,mp-1206511
3.0698000000000003,-2.5068835058333327,Y2Tl2W4O16,mp-1207646
4.9356,-2.5651610457933334,Tl2Ge1F6,mp-1208162
3.0289,-3.1975532791666663,Pr8W4O24,mp-1209470
2.9198,-2.026902647346265,Rb24W6O30,mp-1209481
4.0337,-1.8760032178987067,Rb8Nd4Br20,mp-1209500
1.5407999999999995,-2.720857892346001,Pr4Mn2Ni2O12,mp-1209751
5.9895,-3.452872587404445,Na4Sr4Ga4F24,mp-1210031
0.17099999999999982,-2.4972716649362074,Rb8Ce4Cl20,mp-1210098
3.1817,-2.796992775000001,Li12Er12Te8O48,mp-1210989
0.3762000000000003,-2.8079267597500004,Li2Pr4Ru2O12,mp-1211106
3.8595,-2.692302507541668,K2La2W4O16,mp-1211473
3.1751,-2.607122314416666,K4Gd4Mo8O32,mp-1211580
2.5533,-2.652425576582,K4Gd8Cl28,mp-1211663
3.4963,-2.7279670102746296,K2Rb1La1V2O8,mp-1211738
3.5628,-2.738366494117648,Ho4Mo6O24,mp-1212381
3.2258,-2.667805585769231,Ho4Hf4Mo14O56,mp-1212595
0.01990000000000025,-0.6304822570833336,Er16Cd4Pt4,mp-1212949
3.9794,-1.4631597186645422,In4H48S12N12O48,mp-1213492
3.6554,-2.111945052058823,Ga16Mo24O96,mp-1213624
2.8688,-3.0403912315833344,Ba3Nb2Cd1O9,mp-1214502
4.3703,-2.2923965114585654,Ba3Mn15S18O72,mp-1215056
1.2617000000000005,-1.1373025310267857,Y2Cu6S6,mp-1216184
1.935,-2.1334513056250004,Tb2Te1S2,mp-1217684
1.6311,-0.6276288649804682,Ta1Cu3Se3S1,mp-1217996
2.6767000000000003,-3.340134451746516,Sr10P6O25,mp-1218894
1.3956,-1.820448692445055,Hg12P8O32,mp-12199
0.002200000000000202,-2.518704111658915,Na7Mn4Fe8P12O48,mp-1221002
2.7619,-2.4420758109642864,Na1Nb4Bi5O18,mp-1221019
0.01609999999999978,-2.06331996815625,Na1Ce1S2,mp-1221073
1.5465999999999998,-1.9435918118542859,Mn1Zn1Fe4O8,mp-1221602
2.2507,-2.2302237959374995,La18Al10S42,mp-1223592
0.1493000000000002,-0.13021689437499973,Fe2Ni2Sb12,mp-1224908
2.1741,-2.3977728306034485,Ba6Bi2Te3O18,mp-1228122
0.008799999999999919,-2.2261541754722223,Ba6In2Ir2Ru2O18,mp-1228718
0.2410000000000005,-1.197001475892857,Al2Cr3Cu1S8,mp-1228975
0.9914999999999998,-0.5161183004241074,Ag6P2S8,mp-12459
4.3762,-2.931257097107843,La4Cd4B20O40,mp-14555
4.2713,-3.8282763794999997,Y12Sc8Al12O48,mp-14678
3.6877,-3.3262418954166666,Sr32Al48W8O128,mp-14865
2.5309,-2.588871468551588,Sm6Mo12O45,mp-16679
2.7923,-2.5037535048214283,Tl4Cr4P8O28,mp-17021
4.5437,-2.8259292164375003,Na8Be4Si4O16,mp-17183
2.3435,-1.7640990897030653,Cs16Sn4O16,mp-17213
1.7602999999999998,-2.2256933709006894,Rb4Ba4Mn4O16,mp-17445
5.2973,-2.9440147113765733,Cs2Pr2P8O24,mp-17770
2.4175,-1.5160618452371883,Mn4Se8O20,mp-17901
1.7013,-1.369739817452206,K8Ta4S22,mp-18664
4.5673,-3.3774436222416657,Nb4F20,mp-18687
2.4856000000000003,-3.2037112742500002,Y4Cr4O12,mp-18725
3.6809,-2.5746890191666667,Mg2W2O8,mp-18875
0.3967000000000001,-2.091995745208333,Ba3Co3O6,mp-19086
0.05039999999999978,-1.1348410200000008,Dy4Ge4Pt4,mp-20739
1.8332,-1.6745530827200004,K2Pt1Cl4,mp-22934
4.0263,-3.030418887063333,Ba2I2F2,mp-22951
0.7935000000000008,-1.3486094087500011,Bi4Pt4O14,mp-23341
2.5762,-1.0936787716427203,Rb8Ag4I12,mp-23399
0.8320000000000001,-1.3999668281973796,Cs2Au2Cl6,mp-23484
2.7170999999999994,-1.630619501577847,Mn6H4Se6O20,mp-24178
5.5321,-0.4442682722861541,K2B12H12,mp-24239
6.1876,-0.22602762634484785,Be8B16H64,mp-27344
6.7352,-1.64082476166,H12O4F4,mp-27714
1.4546,-1.8069106329166664,V2Br2O2,mp-27841
2.8134,-0.8291765777377778,N6O12,mp-2789
1.2824,-0.6517921944375005,Sb8S12,mp-2809
2.9734,-1.5488635590000002,Cd8Te8O24,mp-28290
2.4105,-1.0703573955000003,Zr8Te4Br48,mp-28672
0.7610000000000001,-0.5297306812072959,Rb6Ag30S18,mp-28703
0.7103999999999999,-1.5734118493472722,Nb6Te2Cl14,mp-28938
5.165799999999999,-2.517231807506666,Na4Lu4Cl16,mp-29001
1.2565,-0.9413736098823224,W8S72Cl32,mp-29051
1.6980000000000002,-0.8618742917794548,Rb8Au12S10,mp-29090
0.2906000000000004,-0.2283199705000006,K4Ga4Sb16,mp-29374
0.5116000000000005,-0.5420829204545451,Nb6Te2I14,mp-29689
1.6479,-1.7456779154258248,Hg8P4O14,mp-29710
0.0018000000000002456,-0.8374940294230774,Ce8Ge18Rh26,mp-29776
1.7115,-0.2380901377529761,Ga8P16I72,mp-29817
1.9873,-1.5434629843084906,Cs9Hg9Cl27,mp-29845
5.2176,-0.37507039203444414,K6Re3H27,mp-29877
3.1716,-2.274660556458334,Sr6Te8O22,mp-30026
2.5301,-1.32398628392498,Cs12B4S12,mp-30222
0.31499999999999995,-0.6172707000000001,Ca8Ge4,mp-304
0.02909999999999968,-0.5595561083333335,Ca8Pb4,mp-30478
1.2956,-1.0108049775312498,K2Pt4S6,mp-30533
4.1634,-1.548701174945,Ga2Cl6,mp-30952
1.7509,-1.6081752371071434,Na6Co2O6,mp-31126
3.5671,-2.7375404414705877,Tb8Mo12O48,mp-3114
3.7756,-2.7330930012500003,Li12Nb4O16,mp-31488
0.00550000000000006,-1.1463867732421882,Cu2Se4O10,mp-3199
3.9977,-2.044719427343751,Pb4S4O16,mp-3472
1.2385000000000002,-2.3777661691085714,Na4Pd2F8,mp-3622
2.2723,-1.9748177818750008,Ba1Hg1O2,mp-3915
3.0695,-1.9614196588888893,Ga3As3O12,mp-3996
0.2032000000000007,-3.6120356650566654,Ba4Ce6Si6O24F2,mp-42307
5.2124,-2.7568974366357137,K4Te4F20,mp-4648
3.9982,-3.4833886271875003,Ca2Al8O14,mp-4867
1.1134000000000004,-1.2634383237630211,Dy6Cu2Ge2Se14,mp-505558
3.3371,-2.2766119688248843,Bi6P4Pb1O20,mp-505697
0.7549999999999999,-1.448522428211538,K12Co4O10,mp-510366
0.7799,-2.0766536443471435,Li10Mn14O32,mp-530177
3.6298,-2.72421246434066,Ca21As14O56,mp-530449
0.0007000000000001451,-0.4384130255932208,Li19Fe20As20,mp-530480
2.4819,-1.0172789903240749,Ti4Tl16S16,mp-540939
5.3329,-2.8309237393458653,Na4Sr2P8O24,mp-540951
1.2702,-1.139738004202223,Fe2Te2Cl14,mp-540997
0.0931999999999995,-0.6559369880476197,Sr2Ni18P10,mp-541294
2.0978,-4.081785165618667,Ce6F24,mp-542001
2.8687,-2.203011023064516,Sr1V4Bi6O20,mp-553895
0.13640000000000008,-1.1262498680701754,Ag4Hg4Te6O24,mp-553949
3.3047000000000004,-3.4871775291666665,Sc2Nb2O8,mp-553961
1.7788000000000002,-1.7909755954536897,Cs2Au4F14,mp-554737
3.4104,-1.5095130639423082,Tb4I12O36,mp-554821
1.8948,-1.2257258502741928,Rb4Pd2N8O24,mp-555122
3.2084,-3.5242738256127786,Sm2Ti2Cl2O6,mp-555184
2.0869,-2.2314382378070188,Sr2V8Ag4O24,mp-555885
5.4510999999999985,-2.8771304309469694,Ba8Li12P28O84,mp-555958
2.6528,-3.1424649613825,Ba4Co4Cl2F14,mp-556007
4.7045,-3.315295247185185,Na4Sr2Al8Si8O32,mp-556356
3.5228,-1.4761142201006239,Bi4Se4Cl4O12,mp-556378
2.0712,-2.35210464825,Ba6Bi4Te2O18,mp-556407
2.5442,-3.1296239435640003,Na6V2F12,mp-556633
3.7417,-2.50496046720876,Rb10Er2Hf2Mo12O48,mp-557014
2.9423,-1.2676150116807259,Cs4Ni2N8O24,mp-557503
2.3046,-2.783732747666668,Na4Ti2Fe10Si12O40,mp-557596
1.8022,-1.4980707492853331,Cd2Au4F24,mp-557715
1.9163,-2.732650957474644,Gd4S4Cl4O16,mp-558122
3.6649,-2.4999591707096678,Rb12P4O16,mp-558170
0.7225999999999999,-2.363510891971983,La20S38,mp-558229
5.2406,-2.7455206378746664,Na4Li4Si4B12H4O32,mp-558267
3.9773,-2.3964560901250005,K4Li2V2O8,mp-558369
5.0611,-3.436398689988001,Mg12Si4O16F8,mp-558458
3.3582,-2.755144732889049,K8Mn8P8O28F8,mp-558599
4.0258,-3.6765001775,Sc2Ta2O8,mp-558781
0.8623000000000003,-1.3182187653333342,Bi32Au16O72,mp-559422
4.3383,-2.578084976439732,Na40Li8P16O64,mp-559452
1.8729000000000005,-2.9897994802500003,Li4V4Si8O24,mp-559840
0.4787999999999997,-1.3969245681249998,Li2Bi2Pd4O8,mp-559893
1.7721999999999998,-1.831355228619792,Pr6Cu2Sn2S14,mp-560014
4.9389,-2.9281680197329663,Rb2Na1Bi1F6,mp-560037
2.983,-1.1905548649999995,Tl2Pb16Br18O8,mp-560133
1.6315000000000002,-1.0633794449629996,K8Ru4Br20N4O4,mp-560144
3.6834,-2.324480003954672,Na16Ni12P16O60,mp-560780
3.9868,-2.7813153170486125,Ba2Ga4B4O14,mp-560870
1.834,-0.9071940795482428,Rb4Sb8S14,mp-561051
0.09370000000000013,-1.3632236188281244,Sm8Cu8Te8S8,mp-561248
3.1525000000000003,-2.75223402875,Ba6V8Pb2O28,mp-561403
0.8077000000000001,-0.2295740543055555,Cu24Te24Br24,mp-568778
4.8264,-0.3153926753386661,Li12Be12H36,mp-570218
2.8096,-1.296710892753833,Zr2Se4Cl24,mp-570544
1.7663000000000002,-0.6754362247413794,Cs4I16,mp-571011
1.0979,-0.6657332603313572,Cs2Pt4Se6,mp-573316
0.8326000000000002,-0.6206651562356326,Cs8Te12As4,mp-574138
0.8611,-1.0083120599206352,Sr22In2Sb18,mp-578752
2.02,-0.9530156195574204,Cs12Bi4Se12,mp-581738
1.5678,-0.8097240739114285,Hg8N4O16,mp-5824
2.1156,-2.328202027986112,Li3Cd3B3O9,mp-6126
1.5255000000000003,-2.1204781290299994,V4H4O8,mp-626787
0.26229999999999976,-3.474090983576069,Cs3Ce1F6,mp-632715
4.9714,-1.9265122511033328,K4H4C4O12,mp-634431
2.3812,-1.0624495748196696,Rb4P4Pb4S16,mp-638009
5.5745000000000005,-2.8828548909489804,Na12Be12P12O48,mp-6392
5.3198,-3.26458560390625,Li2Al2Si8O20,mp-6442
3.2636000000000003,-2.476693130028,Nb4Cl4F32,mp-649253
1.1913,-0.8368602399773544,In8Bi16Pb16S52,mp-650840
1.9,-0.7872029757812511,Tl8Ge4Pb4S16,mp-653561
1.9379,-0.36651236178571417,Re4Te8Br16,mp-662556
5.1648,-3.5900165292708337,Y4Be4Si2O14,mp-6655
6.114699999999999,-3.2921579652811497,Al12B10O30F6,mp-6738
6.8673,-4.012550029043333,Na2Ho2F8,mp-675798
4.1412,-3.9752958292105274,Ho8Zr6O24,mp-676881
0.015900000000000247,-0.1330924494835679,Mg54Ag17,mp-678
3.5836,-2.677001073262862,Cs4Ag8B60O96,mp-679997
5.4514,-2.8484097545294547,Cs4B36O56,mp-680683
0.7315,-0.9777641809302324,Ba84Cd16Sb72,mp-684034
3.5548,-2.693495173529411,Nd4Mo6O24,mp-698669
2.4045,-2.79798692763889,Ba20Sr4Nd8Fe16O60,mp-698854
2.0297,-0.6996884850794121,Sb4H4C12N12Cl36,mp-705514
0.12700000000000022,-2.473018517509125,K10Ce4H4S12O50,mp-710070
2.0508,-3.3791011496066807,Cs1Sr2Ta3O10,mp-7181
1.1076999999999997,-0.6514615991517859,P8Pd8S8,mp-7280
5.0299,-3.5659180783925004,Zr2Pb2F12,mp-7310
0.6100000000000003,-1.1045950530729174,Ba1Ag2Ge1S4,mp-7394
2.4913,-2.7007632448015872,Ca2Fe2Sn2P6O24,mp-743601
1.2742000000000002,-1.235435509416667,Na4Cu4O4,mp-7469
3.2765000000000004,-3.9363269831770817,Tm8Ti4O20,mp-752579
0.8279999999999998,-2.222700563293333,Li2Cu2F8,mp-753257
1.6350999999999998,-1.4227765264322934,Fe2Se2O8,mp-754639
2.0949,-2.7733669908333334,Ta2Fe2O8,mp-754944
4.3469,-3.196923357916667,Tm2Br2O2,mp-754969
0.02519999999999989,-2.2678824429687494,Eu2Se2O6,mp-755177
4.1698,-3.1674664464393936,Ba6B4O12,mp-755417
5.3104,-3.588235333583333,Lu2B2O6,mp-7560
2.8214,-2.8257954973189663,Rb4Nb4O12,mp-756063
1.1597000000000002,-2.129632326761905,Na4Tl2P2C2O14,mp-756769
5.0719,-2.623621475511906,Na4Al2P2C2O14,mp-768146
7.0525,-4.406225694501819,Ba1Y2F8,mp-768240
2.1791,-3.41498409121875,Dy2Se1O2,mp-769284
2.6883,-3.1044501139285714,Li10Ti12Fe2O32,mp-769637
2.9789000000000003,-3.828435294734849,Tm8Ti8O28,mp-771323
3.5318000000000005,-1.9715174308987071,Na12Ni4C8S2O32,mp-776196
0.06820000000000004,-0.990847605,Yb2Sb1Au1,mp-864783
0.15850000000000009,-0.8875042637499999,Yb2Bi1Au1,mp-865800
0.7408000000000001,-0.3305646738979594,Na4Cd1P2,mp-8752
1.7535000000000005,-0.7980686657812507,Tl6B6S12,mp-8946
1.9842,-0.9529588512968754,K4Ta2Cu2Se8,mp-8972
2.2862,-2.1572738502424578,Rb1Sm1S2,mp-9364
2.8466000000000005,-3.351895897173913,Sr4Al6Te1O12,mp-9392
3.728,-2.364653245858572,Pr2C1N2O2,mp-9497
0.4411000000000001,-0.40081172722413816,Cs12Ga2Sb6,mp-9697
2.9904,-2.0054024169807128,Cs2Na1In1Cl6,mp-989571
3.5985,-1.5840691920689651,Rb4Ca4I12,mp-998592
1.4338999999999995,-2.7899171387500004,La2Mg1Ni1O6,mvc-15460
1.572699999999999,-3.136938052750001,Ca4Ta2Mo2O12,mvc-4373