band_gap,formation_energy_per_atom,full_formula,task_id
0.0,-0.252249761249999,Gd16Mg2Al2Ni4,mp-1225213
0.0,-0.7908652192857143,Er2Fe6Co6P7,mp-1225690
0.18009999999999993,-0.48299698043103456,K60Ga18As38,mp-1225940
0.0,-0.5453710408620696,Er5Sn18Rh6,mp-1225985
3.0900999999999996,-2.265028175616775,Ca5Bi6Cl12O8,mp-1227157
0.0,-0.19796733759259227,Ba8Cu4Si42,mp-1228302
0.0,-2.6895226067857143,Ba4Pr2Nb2Cu4O16,mp-1228503
2.8428000000000004,-1.9636646339772719,Al3Tl4Fe1As8O28,mp-1229069
0.0,-1.0011471324999999,Pr2Te6,mp-12351
2.2632000000000003,-2.377682635745799,Bi4Sb12P24O96,mp-1237522
0.0,-0.27914241743749957,Co2Pd4Se4,mp-12464
0.0,-0.6480521450000005,Ce1Ge3Ir1,mp-13122
1.9306999999999999,-0.8100321455357137,B12O2,mp-1346
0.0,-1.1154091809523807,Sc5Si7Pt9,mp-13573
3.9877000000000002,-2.6724129170138897,Cd8B32O56,mp-13603
3.2104,-3.649792651477274,Gd8Si8O28,mp-13775
0.0,-0.21819910374999907,Li1Co2Ge1,mp-13914
7.1223,-3.765497483092184,Rb2Hf1F6,mp-13947
0.0,-0.4927305492307688,Nb5Si4Cu4,mp-13967
4.9436,-4.2878379366466675,Tb2O2F2,mp-14093
0.42989999999999995,-0.9082295080977616,Rb36Fe8Se28,mp-14892
0.0,-0.9129794737500001,Al6Pt10,mp-1501
1.9874999999999998,-2.1881051682812505,Li1Ho1S2,mp-15790
0.0,-0.8050587199999999,Ca2Sb2Au2,mp-16245
0.15500000000000025,-1.7141034087500007,Ca12Ge4O4,mp-17193
2.0868,-1.9402552291145838,Ba8Cd4S12,mp-18309
0.0,-0.8224987769999998,Nd4Ge10Rh6,mp-18678
1.0495999999999999,-1.1293347697395835,Sr3Cu6Ge3S12,mp-18685
4.4380999999999995,-2.7074402271425004,Sb2F6,mp-1880
4.7520999999999995,-2.2229089934285713,Na4W2O8,mp-18803
3.6153000000000004,-1.9597433121428571,Si4Ni8O16,mp-19072
2.3390000000000004,-2.791064975346,Ca4Mn2W2O12,mp-19108
0.0,-0.6092584039999999,Dy1Co2Ge2,mp-19771
1.5513,-2.9637512342499996,Tb4Fe4O12,mp-19853
0.059500000000000774,-0.5278958100000004,Gd2Al4,mp-19923
0.0,-0.6986245322222224,Lu2Ti2Ge2,mp-19959
0.0,-0.8791317825,La2Ni4As4,mp-20044
0.0,-0.4269861772222221,Ca2In8Pd2,mp-20108
0.0,-1.02188049107143,Eu1P1,mp-20300
0.0,-0.6040907058333337,Nd2Co2Ge2,mp-20531
0.0,-0.8460604500000004,Pr2Sb4Pd2,mp-20532
0.0,-0.2800133109999997,Sn8Pt2,mp-20662
0.0,-0.12095207499999816,Cr6Ge2,mp-20685
0.0,-1.0840714391666673,Er4Si4Ir4,mp-20733
0.025100000000000122,-0.8392198186111118,Eu4In4Pt4,mp-21051
0.0,-0.4780608466666665,Li3Yb3Pb3,mp-21242
0.0,-1.0858628800000005,Ce2Pt2,mp-21245
0.0,-0.6761060275000004,Ca1Pd1,mp-213
0.0,-0.7203564233333329,Ce3In3Pd3,mp-21387
0.0,-0.7906264196666669,Pr4In2Pd4,mp-21870
0.0,-0.8030219802551027,Sm6Ni24P12,mp-21916
0.0,-0.7644870479999994,Sm4Ge4Ru2,mp-22044
0.0,-0.9661406400000002,Yb4As6Rh7,mp-22062
0.0,-0.9320123725868059,Zr24Se12,mp-22642
0.0,-0.5955533961111108,Ho1B2,mp-2267
0.0,-0.48362934166666705,Y1In1,mp-22704
0.0,-2.8450019537499998,Sr4Lu2Ir2O12,mp-22726
0.0,-0.8727520674999996,Tb1Bi1,mp-22921
1.7152000000000003,-1.4134016280357145,Ca2P1I1,mp-23040
0.0,-0.4179379566666673,Zr2Au1,mp-2348
1.9563000000000001,-1.615097105015481,As4Se12Cl12F24,mp-23575
3.4231,-1.2741034987485713,Zn4H32N8O40,mp-23929
0.0,-0.19001110222222226,Sr1Ag5,mp-2410
3.6209000000000002,-1.550512724417235,Cs4H4Se4O16,mp-24141
0.11760000000000037,-0.5252953174999995,As8Pt4,mp-2513
0.0,-0.37859212500000083,V1Tc1,mp-2540
3.8885,-2.553904466350932,Li4Fe6P8O28,mp-26985
3.1915999999999998,-2.027719882634616,Na8As4O14,mp-27197
3.4585999999999997,-1.09882259914,Cd8N16O48,mp-27198
4.4173,-2.622515396618132,Na16P8O28,mp-27579
2.3763,-2.3375681837085716,Mn2Cr4O8,mp-28226
0.0,-1.1411927632142849,Ca4P4Pt4,mp-28339
1.0697999999999999,-0.47988002571428573,W1Br6,mp-28483
3.343,-2.4519697107766674,Nd8N4Cl12,mp-28970
4.4582,-2.887269757036149,Cs8Sb8F32,mp-29296
0.0,-0.47912069816666614,La1Co2B2,mp-2967
0.0,-0.6780253383928567,Nb6B6C2,mp-29979
0.0,0.0,Cu1,mp-30
2.4872,-1.358715116250001,Li16Ge4S16,mp-30249
0.0,-0.6870488718750001,Ca10Au6,mp-30368
0.0,-0.7594190549999998,Pr2Au4,mp-30415
0.0,-0.5641093116666672,Zr2Ga4,mp-30683
0.0,-0.4283192050427355,Ho20In40Ni18,mp-30729
0.0,-0.8968175956249995,Sm1Pt3,mp-30845
0.0,-0.42712308653846137,Ho1Al8Fe4,mp-31179
0.0,-0.652319093333334,Zr10Ga2Sn6,mp-31207
6.4096,-3.39502172868,K2Mg1F4,mp-31212
0.0,-0.9098107033333334,Er3Sn3Rh3,mp-31298
0.0,-0.5469214600000001,Li2Ga1Pd1,mp-3201
3.1254999999999997,-2.2417498381249996,Li8Sn4O12,mp-3540
0.0,-0.48516448125,Zr2Al6,mp-395
0.0,-0.33424097437499967,Y1Co1C2,mp-4248
0.0,-0.7396268716666666,Sr2Au4,mp-434
0.0,-0.6063120089999998,Ho1Co2Ge2,mp-4415
0.37490000000000023,-0.4155470200000006,Nb1Sb1Ru1,mp-505297
3.754599999999999,-0.7108544798526187,K4P16N28,mp-505495
0.0,-0.6772251134375011,Zr20Sb12,mp-505759
1.0820999999999996,-1.590909935697737,Cs2La4Cu2Se8,mp-505815
0.19789999999999974,-0.6884156682826474,Rb4Ag8S6,mp-510240
0.0,-0.545446438333333,Yb2Cu2Ge2,mp-5111
0.0,-0.7351230229999999,Pr1Co2Si2,mp-5112
0.0,-0.6477531730555555,Pr1B2Rh3,mp-5369
3.9847,-3.3799633889590415,Rb10Nb6O2F36,mp-540995
0.0,-0.5438692749999995,Nb6Co16Si7,mp-541938
0.0,-0.8857653603333333,Sc6B4Rh10,mp-542020
0.0,-2.3872158122500005,Ba6Li2Os4O18,mp-542207
0.0,-0.8826900983333329,Ba22Bi20,mp-542293
0.33830000000000027,-0.8629362155357144,Sr24Ga8Sb24,mp-542625
0.0,-1.5344255009999999,La2Te1I2,mp-543029
0.0,-2.8379848385,Pr2Bi1O2,mp-545539
3.6936999999999998,-3.0058800625829654,K1Rb2Mo1F6,mp-554168
0.0,-3.1446293378409105,Sm24Ru8O56,mp-555525
4.754099999999999,-3.8578079998437502,Er8Si4O20,mp-555983
3.5652,-2.3726982246648354,K8Bi4Mo4P4O32,mp-556606
0.0,-2.5778648095833336,Ba6Lu2Ir4O18,mp-556674
2.7204,-2.2752664770085236,K16Mo4S12O56,mp-557872
3.6229999999999998,-2.7349182802142855,Mg8Bi4P4O24,mp-558660
4.686,-3.284162512881945,Sr2Al4B4O14,mp-558669
0.0,-2.444467086095168,Cs6Yb2S6O24,mp-558829
3.3884,-2.978473594207717,Cs1Ta1P2O8,mp-559118
1.8661999999999999,-1.2759959274999997,Cr4Hg12Pb8O32,mp-559462
0.0,-2.4259375549224145,Ba12Na4Cr4Ru4O34,mp-559863
4.0828,-3.020653198855379,Cs4K1Li1Fe2F12,mp-561000
1.8162,-1.41070998444569,Cs8K32Tl8O32,mp-562074
0.0,-0.018189072500000236,Ta4Sn8,mp-567982
0.0,-0.7177137824999997,Lu1Bi1,mp-568059
0.0,-0.6167424028228571,Sr3Li3Ni4N4,mp-568322
0.006600000000000161,-0.3595632095,K12Na8Sn4Bi12,mp-568329
0.0,-0.39202449316176524,Nd46Mg8Rh14,mp-568485
0.0,-0.07241819517241374,Ba6Mg23,mp-568512
0.0,-0.8503265962499995,Zr4Ir4,mp-568992
0.0,-0.41876603714285715,Pr2Au12,mp-569032
0.0,-0.3756202791666672,Y1In1Ag2,mp-569823
0.0,-0.7662909405172416,Zr6Si7Ni16,mp-570166
1.4405000000000001,-0.42081792035201165,Rb20Ta4Tl8As16,mp-570566
0.0,-0.6121875081666672,Nd12Ni12Sb36,mp-571167
0.0,-0.3561387806249998,Yb10Ag6,mp-571212
0.0,-0.43937327138888865,Ti4Ga8,mp-571342
2.6688,-1.8506638306177778,K4Sn2Cl12,mp-571453
0.0,-0.3069224050000002,Pr26Zn116,mp-571501
0.0,-0.3198874737499997,Sm1Cd1,mp-572
0.0,-2.1576290915196124,Cs4Cu8F20,mp-572903
0.4654,-2.3731194086268212,Cs14Cu12F38,mp-573073
0.0,-0.7783540033333326,Ce2Ir4,mp-582
0.0,-1.4558378849479159,Ce8As8Se8,mp-607004
0.0,-0.3349006446400003,Na32In24Au44,mp-607853
3.2001,-1.998156738250001,K2Ge2Pb2O7,mp-608014
0.0,-2.495221151583333,Ba6Ca2Ru4O18,mp-6443
0.0,-1.295140835431034,Rb6V4Br18,mp-650503
1.6208,-0.9031039767187501,Re12S16Br4,mp-652046
3.7661000000000002,-3.012482100750001,Ba2Pr1Sb1O6,mp-6692
2.7788,-1.494663106530909,Ta4Te4Cl36,mp-669345
0.0,-2.3800782403140004,K8Cu8F24,mp-669347
0.0,-0.16154099178571432,Ba2Zn26,mp-672225
7.1429,-3.134418321936219,Cs1P1F6,mp-675011
0.0,-0.45898998673958524,Ta36Te18S6,mp-676291
0.0,-3.145687549736842,Tb5Ru2O12,mp-677244
0.0,-0.5971125799305561,La1B2Rh2C1,mp-6794
3.637,-0.44616985008000004,Na2H6Pt1,mp-690785
0.0,-0.6798942228126306,Ca4H12Rh3,mp-697126
3.9718000000000004,-1.9800233344541072,Tl8P8H16O32,mp-697267
5.573099999999999,-2.8650042500675315,Ca4B16H4O30,mp-706291
0.0,-0.5183499087500003,Sn1Pd3,mp-718
0.0,-0.5155356742857141,Sr3Al2Sn2,mp-7376
0.0,-1.6143181835714282,Ho1P1,mp-744
2.3963,-3.21993545824375,Li4V2F10,mp-754000
0.0,-1.4325459433333332,Tl2As2O8,mp-754214
0.0,-1.6946233150000003,Li4Ni3Sb1O8,mp-754228
4.0047999999999995,-3.1867008455,Na4Ho4O8,mp-755617
3.2861,-3.9161778931770828,Ho8Ti4O20,mp-768605
0.12379999999999969,-2.426554408250001,Sm4Cu4O12,mp-770767
3.4326999999999996,-2.4580065394044546,Na12Sn4B8S2O32,mp-780239
3.7159999999999997,-3.09355202925,Ca6W2O12,mp-781505
0.0,-0.244044896923077,Y1B12,mp-7817
0.0,-0.5506848194444431,Mn3Nb3Si3,mp-7829
4.2768999999999995,-2.4654721599999996,Al1As1O4,mp-7849
2.1084,-2.6333972502674996,Ca1Pd1F6,mp-7922
0.3722000000000003,-0.49150477874999954,Li8As8,mp-7943
4.9577,-3.0099441240155556,Na4Sn2F12,mp-8081
2.7044,-2.1500694902090514,Na12V4C8S2O32,mp-850796
0.0,-0.5602377800000005,Ca1Sn1Rh2,mp-861935
0.0,-0.9680496724999994,Sc2Ru1Pt1,mp-862371
0.0,-1.0229887399999997,Al2Ir1Rh1,mp-862694
0.0,-0.5352808187499996,Sc1Ta1Os2,mp-862699
0.0,-0.8271649075000003,Er1Sn1Rh2,mp-862931
0.0,-0.4944667487500003,Pm2Cd1Ge1,mp-862994
0.027000000000000135,-1.8657326163072003,Mn8Pb1O16,mp-863405
0.0,-0.8910682187500001,Pm2Pt1Rh1,mp-863732
0.0,-0.7469698075000002,Ho1Cd1Pd2,mp-864760
0.0,-0.72585563375,Yb2Sn1Hg1,mp-864789
0.0,-0.4664248462499998,Nb1Zn1Rh2,mp-864831
0.0,-0.7808591191666672,Mg1Ti1Rh2,mp-864919
0.0,-0.16568355487499975,Na1Tl2Bi1,mp-865145
0.0,-0.39799433374999893,Hf1Sc1Co2,mp-865165
0.0,-0.4464033237499999,Yb2Hg6,mp-865171
5.395300000000001,-4.1434770596425,Tm1F3,mp-865194
0.0,-0.38546068500000086,Pm2Cu1Si1,mp-865547
0.0,-0.6046955804166672,Ti1Sn1Pd2,mp-865679
0.0,-0.32769141958333314,Yb1Cd1Ag2,mp-865739
0.0,-0.67159004125,Yb1Cd1Au2,mp-865740
0.0,-0.39129922625000013,Li2Zn1Au1,mp-865871
0.0,-0.2019904862500006,Er1Nb1Os2,mp-866026
0.0,-0.12577622583333348,Ti6In2,mp-866046
0.0,-0.813223773749999,Mg1Sc1Rh2,mp-866069
0.0,-0.9901702041666667,Ti1Al1Rh2,mp-866153
0.0,-0.6574069537499998,Gd1Cd1Au2,mp-866167
0.0,-0.35402782458333304,Lu2Cd1In1,mp-866211
0.0,-0.3458087016666678,Ti1Tc2Mo1,mp-866213
0.0,-0.7967543487500004,Dy1Sn1Rh2,mp-866290
2.7947999999999995,-1.393933575090588,Ca20Al8Si8N32,mp-866314
0.0,-0.4505300099999996,Li1Y1Hg2,mp-867810
0.0,-0.6099855681250004,Sm1Pb1Au2,mp-867985
3.9634,-2.7466583497527473,Sr4Zn8P8O32,mp-8810
0.0,-0.3533703674999997,Y1Cd1,mp-915
0.0,-1.9987973946428568,La2Pd4O8,mp-9210
0.0,-0.2310595250000005,Li1Tl1,mp-934
0.0,-0.3067819008333337,Tm1Mg1Ag2,mp-971868
0.0,-0.4005140041666664,Tm1Lu1In2,mp-972455
0.0,-0.2915903333333336,Mg1Sc2In1,mp-977586
3.436,-1.2348543805022216,Sr12Li24Si24N48,mp-978840
0.0,-0.1509091337500008,Tm2Be1Os1,mp-979042
0.0,-0.027929825875000036,Na6Cd2,mp-983509
0.0,-0.2837187312499998,Ba2Tl1Zn1,mp-984724
0.0,-0.30502196230769185,Dy1Al8Cu4,mp-984726
0.0,-1.0533819503571435,La1P2Ru2,mp-9886
0.0,0.0,Er2,mp-99
0.0,-0.3058632588888888,V5Te4,mp-9948
0.0,-0.9297364492413791,Cs1Pd1Br3,mp-998307
0.0,-1.7103509317140002,Tl1Pd1F3,mp-998786
1.8862,-3.106446869250001,Ca4Ta2Fe2O12,mvc-4371
0.0,-0.19221224249999924,Hf1Zn1,mp-1014219
0.0,-1.1545853614283335,Ti4Zn2N2,mp-1014227
0.0,-1.344705260793334,Zr4N2,mp-1014265
0.0,-0.1250627900000003,Cu1Pd1,mp-1018029
0.0,-0.4534126695400005,Li1H1Pd1,mp-1018133
5.258900000000001,-3.088286634537357,Cs8Si16B8O48,mp-1019719
0.0,-0.6456670472222233,Ti2Ga2Pd2,mp-1025045
0.0,-0.38991786142857165,Hf4Al3,mp-1025223
0.0,-0.5872187333928574,La2Fe2Si2C1,mp-1025290
0.0,-0.3742340416266667,Li4Ru4N4,mp-1029251
1.2351999999999999,-1.286736586613333,Ca8Zr2N8,mp-1029660
0.0,-0.3539128475000002,Gd1Cd1,mp-1031
0.0,-1.0241002600000009,Pr2Pt4,mp-1061
0.0,-0.8826711723809524,Ca2P2Au2,mp-10677
0.0,-0.611899142499999,Sm1Si3Os1,mp-1068782
0.0,-0.8257638983333339,Gd2Zr2Sb2,mp-1071459
0.0,-0.6180665155555545,Ta2Ni2B2,mp-1076987
0.0,-0.3733100074999995,Er1Cu4Pd1,mp-1077518
0.0,-0.6446246266666668,Ho2Al2Ge2,mp-1077785
0.0,-2.6574499217500005,Sr2Mg1Os1O6,mp-1078180
0.0,-0.7097112724999999,Dy2Ni2Ge4,mp-1078577
0.0,-0.2088261399375,Na1Cd4As3,mp-1078578
0.0,-0.5152982801666667,Sm2Ni4B4,mp-1078891
0.0,-0.697246423,Er4Cd2Ge4,mp-1079052
0.0,-0.6283871634375,Hf4Pb2C2,mp-1079076
0.0,-0.9055821372222224,Dy3Sn3Rh3,mp-1079974
0.0,-0.3770256080555556,Nd3Al3Cu3,mp-1080560
0.0,-1.143462525833333,Sc4Si4Ir4,mp-1095563
0.0,-3.049461387500001,Li4Eu12O16,mp-1098000
0.0,-0.8806508148809525,Nb4P4Rh4,mp-1101948
0.0,-0.41006560138731046,In2Pd8Se1,mp-1102524
0.0,-0.8949648074999995,La3Zn4Pt4,mp-1102613
2.7928999999999995,-2.624612305782857,Ba1Li2Mn1V2O8,mp-1103771
0.0,-0.29998433769230815,Zr1Ga6Fe6,mp-1103910
0.6391,-0.386247059910714,Mn2Bi4Se8,mp-1104183
3.1768,-1.9485865437858338,B2H2Pb4O8,mp-1105235
0.0,-0.5558238446296302,Nb10Ge6B2,mp-1105818
0.0,-0.2723577562499999,Li2Cd1Pb1,mp-11305
0.0,-0.0874805633333331,Ga2Cu1,mp-11359
0.0,-1.0407075633888891,K1Cu1I1O6,mp-1147553
1.0575999999999999,-0.7449134751987548,Cs2Pd3Se4,mp-11694
4.5214,-2.7278167588469557,Na4Al4Si6H8O24,mp-1173798
4.5096,-3.1932669795833335,Ho2Br2O2,mp-1178160
0.0,-0.2947909124999999,Dy10Tl6,mp-1181553
0.0,-0.0021142949999992666,Dy2Ho6,mp-1183844
0.0,-0.6110061237499984,Er1Hf1Ru2,mp-1184159
0.0,-0.3357911625000001,Er1Cd1Hg2,mp-1184161
0.0,-0.15854658624999995,Li1Mg2Cd1,mp-1185359
0.0,-0.7853162712500001,Pm2Pd1Au1,mp-1186473
0.0,-0.217095106875,Ta3Re1,mp-1187203
0.0,-0.7072742833333336,Pr10Cu2Bi6,mp-1188561
0.0,-0.722234566764706,Ce4Si1Rh12,mp-1190081
1.4199000000000002,-1.2034553973090283,Ba4Ag4Sb4S12,mp-1190401
2.2047999999999996,-1.8449923915249997,Co1Bi6S2O16,mp-1190466
0.2820999999999998,-0.37680454372126465,Cs16Sb8,mp-1191118
0.0,-3.492564866477274,Eu4Ta4O14,mp-1191288
0.0,-0.3319028459523809,Y4Ni13C4,mp-1191870
6.3689,-0.43312016935777703,Li4B4H16,mp-1192133
4.9758,-2.563035905001403,Ba2Ga2B8H6O20,mp-1194652
0.0,-0.3454536421482355,Bi24Rh6Cl4,mp-1195274
0.0,-0.5114365908333333,Nb12B12Os12,mp-1195339
0.0,-0.6702332824999999,Ca2Sn4Pd2,mp-11958
3.3274,-0.19290746880111106,B40H52Br4,mp-1197561
1.3767999999999998,-1.1936189479469235,Hf8Hg32As16Cl48,mp-1198529
0.0,-0.28836044200000044,Ca6Co8Sn26,mp-1200470
5.939299999999999,-0.45383040220518467,Mg2B6H40N6,mp-1200895
0.0,-3.254117971111111,Eu4Nb8O24,mp-1201130
0.0,-0.426919636153846,Lu8Ni60B36,mp-1201139
0.0,-0.8396585155555564,Tb5Zr3Ni16As12,mp-1201911
0.0,-0.7287163391666659,Er8Nb12Ge16,mp-1202972
0.0,-0.45802451395833305,Hf12Fe12Ge24,mp-1203443
0.0,-0.5895846347499998,Ho8Re12Si20,mp-1204182
0.0,-1.9874769651520272,Ba8Ca8Tl7Cu12O39,mp-1204270
3.0038,-0.9038843006008419,P4H72Pt4C24S12Br4F24,mp-1204443
0.0,-0.9777704073571428,Nd2P4Pt4,mp-1205673
0.0,-0.6682330020000009,La4Mg2Si4,mp-1205762
2.2398999999999996,-2.8859414822499994,Ba2Mg1Mo1O6,mp-1205825
0.0,-0.7277137388888882,Sc6Te2Ru1,mp-1205898
0.0,-0.24931885111111088,Lu3Mg3Tl3,mp-1205959
1.5204999999999997,-0.6305839168577774,Ca2Fe1H6,mp-1205964
0.0,-0.4978205072500003,La3Sn1C1,mp-1206443
0.0,-0.5986922550000005,Zr6Ga10,mp-1207393
0.0,-0.9118889675,Yb4Ni4As4,mp-1207525
0.0,-0.5089232399999997,Er2Al4,mp-1208
0.23069999999999968,-0.6020035752040818,Tb2Zn6P6,mp-1208551
0.0,-0.8285182232142851,Ta4V4P4,mp-1208564
0.0,-0.5719511497794121,Sm46Mg8Pt14,mp-1209408
0.0,-0.967742981,Nd4Si10Rh6,mp-1209907
0.0,-0.5667973990789476,Nd6Al24Os8,mp-1209972
0.0,-1.4700874356018514,Ni12B4O20,mp-1210020
3.6771000000000003,-1.5313420174195655,Li8Nd4N20O60,mp-1211215
0.9067000000000003,-2.215260216400001,K2Mg6Cu2As6O24,mp-1211416
0.0,-3.57883684421,K4Eu4F16,mp-1211862
0.0,-0.27659522037037004,Ho12In2Co4,mp-1212180
0.0,-1.3355082950781227,Hf18Re8O6,mp-1212448
0.0,-0.39023577263157894,Ho12Ni6Pb1,mp-1212509
1.1271,-1.9320796981833332,Gd4In8Cl20,mp-1212862
0.0,-0.23339478416666518,Gd16Mg4Ru4,mp-1213042
0.04760000000000009,-3.399489182894738,Er5Re2O12,mp-1213202
2.0606,-2.516265923285632,Cs6Pd2F10,mp-1213701
1.4565000000000001,-1.5089114874856326,Cs12I4O20,mp-1213723
0.03829999999999956,-0.8296621274999987,Ce4Al18Ir6,mp-1213885
0.0,-1.5767235695918365,Ce12P4Br12,mp-1213927
4.6831000000000005,-1.654514759994836,Al4P8H48N12O32,mp-1215134
1.6936999999999998,-2.3725003982738095,Zr2Sb2Pb4O13,mp-1215826
0.0,-0.9166952407142865,Ti3Fe5P4,mp-1217193
0.0,-0.5272981166666669,Tb1Dy3Al8,mp-1217572
0.43459999999999965,-2.50260222525,Sr2Pr2Zn2Ru2O12,mp-1218068
1.8794999999999997,-0.5538696229622394,Se3S21,mp-1219328
0.0,-2.2385816346281264,Rb3W12O36,mp-1219848
5.493,-2.943530871930533,Rb6Nd6P24O72,mp-1219990
3.9092999999999996,-2.2666372396499064,P4Pb8S2O24,mp-1220066
0.0,-0.19284687374999976,Nb1Ni6Mo1,mp-1220426
1.2328000000000001,-1.062237077948082,Nb8P4S42,mp-1220713
0.0,-0.6655256383246756,Na8Eu4Si2P8,mp-1221229
0.06159999999999943,-0.35041677143750005,Mn1Tl1Cu1Se2,mp-1221565
0.0,-1.8547068074218753,La1Er1Se2,mp-1222885
0.0,-0.2579256029166667,La1Cu2Ni3,mp-1222916
0.0,-0.671544293333333,La2Cu1Si3,mp-1223228
4.6584,-3.285528606809501,K1Na1Ca1Mg5Si8O22F2,mp-1223435
1.5192999999999999,-1.8252682775555553,K1Li1Zn3O4,mp-1223469
0.0,-0.2363356775000002,Ho1Cu4Ni1,mp-1223765
0.0,-1.6261336549519996,Hf3N2,mp-1224388
2.5102,-2.401921082093838,In2Sb6P12O48,mp-1224667
0.0,-0.39959239250000067,Gd2In1Ag1,mp-1224988
0.0,-0.32057661958333367,Er2C1,mp-1225044
4.4311,-3.275338414631137,Cs2Mg2In2F12,mp-1225951
0.0,-0.8539534087499998,Ce2Y2Ga4Pd8,mp-1226593
0.0,-0.345890425,Ba1Zn1In3,mp-1227349
0.0,-2.53084904025,Ba6Pr2Ir2Ru2O18,mp-1228216
0.0,-1.2815965624166665,Ca2Pr19Co3I36,mp-1228704
0.0,0.0,Nd4,mp-123
0.0,-0.7427539816666666,Er3Al3Ni1Ge2,mp-12388
0.0,-0.17117398999999978,Dy2Mg4Cu18,mp-13225
0.0,-0.27308276249999963,Ce1Mg1Zn2,mp-13254
4.9474,-2.827270117369898,K2Mg2P6O18,mp-14058
0.0,-0.23626083179687507,Tl2Cu2Se4,mp-14090
0.0,-0.6136062783333327,Li3Y3Si3,mp-14208
2.2776,-1.456309256339286,Ba4Si2Se8,mp-14447
0.0,-0.5188399890000006,Zr4Al6,mp-1482
2.5812999999999997,-3.2936098549023445,Nd16Si8S12O28,mp-14835
0.0,-3.4581163233152172,Ba6Ta10O30,mp-15021
3.0611,-2.925060624000001,Nd12Ga20O48,mp-15239
1.1875,-0.23897101958333403,Be2C1,mp-1569
0.0,-0.6762905488888885,Ti4Ni4Ge4,mp-16356
0.0,-0.4428998688235294,Mg4As6Ir7,mp-16544
0.0,-0.5212906652272732,Sm2Al14Au6,mp-16626
2.3522,-1.4246849801019341,K8Nd4P8S28,mp-16690
2.3175999999999997,-2.9405240925922222,Dy4Pt4F28,mp-17160
0.004399999999999515,-0.7279723716691184,K3Cu8S6,mp-17174
0.0,-2.3066760786764706,Ba8Ru6O20,mp-17304
2.3830999999999998,-2.9345939250922224,Sm4Pt4F28,mp-17569
2.0969,-2.1938309693452394,Ba8Ti4S16,mp-17908
4.8968,-3.576923390647778,Y4Sn4F28,mp-18183
0.0,-2.382886138493591,Sr8Fe8O23,mp-19004
2.5124999999999997,-3.2433297482499994,Er4Cr4O12,mp-19063
0.25039999999999996,-2.758746763749999,Nd2Cr2O8,mp-19126
3.0189000000000004,-2.0872818399999997,V4Pb6O16,mp-20564
0.0,-0.6892113505555552,Dy2Ti2Ge2,mp-20626
0.0,-0.000912292307692024,Dy1Mn12,mp-20656
0.0,-0.3282184262500003,Ho2Co2C2,mp-20906
0.0,-0.828483713333334,Y4Si4Ru4,mp-21069
0.0,-3.3517911282499995,Ba2Eu1Ta1O6,mp-21348
0.0,-2.2359442989732132,Ce2P2Ru2O2,mp-21372
1.7062,-0.9974774174702381,Sr8In16Se32,mp-21733
0.0,-1.0896907525000001,Er1Sb1,mp-2191
0.0,-0.8305726349999999,Dy2Ge2Au2,mp-22149
0.0,-0.8559496733333347,Er4Si4Ru4,mp-22247
0.0,-2.9772778732500003,Eu2B6O12,mp-22248
0.9544999999999999,-0.5760059408630954,Cd1In2Se4,mp-22304
0.0,-0.5642943922499996,Nd8Si20Re12,mp-22401
0.012800000000000367,-0.6942387405000006,Tb8Fe12Si20,mp-22468
1.0491999999999995,-2.4685244504375006,Gd2Lu6S12,mp-22563
0.0,-0.28708577474999997,Na1Bi1,mp-22924
4.4818999999999996,-3.120730395416667,Nd2Br2O2,mp-23068
2.7389,-1.6862949442083341,K1As4Br1O6,mp-23083
3.3327999999999998,-1.7466521187500355,Co1P4H16N2O16,mp-24300
0.0,-0.18207660739583295,Os4Se8,mp-2480
0.0,-0.24675770583333367,Pr1Ag1,mp-2525
0.6558000000000002,-0.059411868333333416,Te16I8,mp-27655
0.0,-0.4439419185714278,Co2B6W6,mp-27768
0.0,-1.3901270515925939,K2V20S32,mp-27889
0.0,-1.560171408707143,Cu1Au1F5,mp-28376
2.9164000000000003,-2.2423852140476193,Li8Ge10O24,mp-28623
0.38519999999999976,-0.49721714402343764,Tl10Se4Br2,mp-28921
0.13309999999999977,-0.8928949960818183,Ba10Cr2N10,mp-29082
2.1662,-1.684009499189453,V8Se12O44,mp-29173
0.0,-0.7033177484558827,Ta6Se16Br12,mp-29589
0.0,-0.6096746862500009,Li1Ge1Pd2,mp-29633
2.8102,-2.0253654003333335,Na8Ge2O8,mp-2970
0.0,-0.875576576696429,Er4Cu4P8,mp-30196
0.0,-1.763583875583295,Rb2W1Cl6,mp-30227
0.0,-0.2533004165000001,Ba2Rh6Pb12,mp-30432
0.0,-0.20592529210526397,Be17Nb2,mp-30441