band_gap,formation_energy_per_atom,full_formula,task_id
3.8024,-3.3447631219940486,Nd6B2W2O18,mp-561272
3.3310000000000004,-2.6611520665760686,Cs3Tl1F6,mp-561827
1.7117,-0.7829935002142859,K12Sb4Te12,mp-5626
2.0794,-2.4499418918750004,Sr4Zn4O8,mp-5637
2.6134,-1.2452466725962503,Sr8Ca16W8N32,mp-567568
0.16639999999999988,-1.3023966741830868,Rb1Pr6C2I12,mp-567940
0.01780000000000026,-0.8039599870000004,Yb4Cd2Sb4,mp-569106
1.8469,-0.43497084797619,Mo24Pb4I56,mp-569225
2.8344,-1.6518810917328572,Na4La16I28N8,mp-569580
0.08930000000000016,-1.8432612325,Ce2Br6,mp-569850
4.0159,-1.6692485666666668,Yb1I2,mp-570418
1.7639000000000002,-0.12455839800000028,Te16I64,mp-570884
1.0930000000000002,-0.8267082989510932,Nb12Se40Cl12,mp-571061
0.7232000000000003,-0.4700518209049998,Ba1Al1Si1H1,mp-571093
1.9127,-0.9064092782799994,Ca6Ga4N8,mp-571162
4.8811,-3.46886615825,Ca12Si12O36,mp-5733
2.088,-0.9916913922844828,Cs4Tl4Br16,mp-573702
0.9312999999999998,-1.1968669966365255,Cs8Tc12S26,mp-579058
4.8312,-3.3294500558252107,Cs16Y8Si32O80F8,mp-581114
0.9503000000000004,-0.9725515449485708,Sr8Li16Cr8N24,mp-629430
3.2768,-3.435824218583334,Ba3Mg1Ta2O9,mp-6325
4.391399999999999,-3.3946848555555555,Ca4Sm1B3O10,mp-6388
3.2229,-3.204368221125,Ca12Cr8Si12O48,mp-6414
0.09379999999999987,-2.0476622694940394,Na1V3H6S2O14,mp-644318
3.4786,-1.5767595636382927,K12Nd8N36O108,mp-649470
1.9741,-1.2796989689880949,Mg6Ga12S24,mp-667323
1.1629999999999998,-1.32934665954,Er14C4I24N2,mp-679936
3.9964,-1.5481144476418751,Be4H32Se4O32,mp-708961
6.976699999999999,-2.41193050605375,K4Al4H24O8F24,mp-723378
3.2789,-1.1717472324479168,Se8O16,mp-726
4.5325,-2.4316835912620243,K24P12H12O48,mp-733468
2.5033000000000003,-2.0932376588874155,K4Fe8P8H20O44,mp-735566
2.9825000000000004,-3.0829240869444443,Lu6Te3O18,mp-755515
3.5443,-2.7557357136566103,Rb4Zr2O6,mp-756156
1.9164,-3.0548986874625004,V4O2F10,mp-756285
2.1491,-1.18325837015625,Li6Sb2S8,mp-756316
0.5674000000000001,-2.4294545495833337,Nd2Bi2O8,mp-756400
3.2704,-1.9208615887323583,Na4Co2P8H32O40,mp-758936
2.268,-0.6231333326319998,K8Mg4H32N16,mp-759183
2.8012,-3.3198911700520832,Sr10Nb8O30,mp-761057
4.0634,-1.0249047943612508,Sc2Cl6O24,mp-769152
4.5012,-3.5429189790833333,La4B4O12,mp-8216
1.9748,-1.6535503768750006,Li4O4,mp-841
0.8559000000000001,-1.5261640715468747,K2Gd4Cu2Se8,mp-861926
3.629,-1.151352187823333,In2H8N2Cl8,mp-863731
2.1114,-0.5238088543216666,K8Na4H24N12,mp-866641
0.7657999999999996,-0.4381633644827591,Cs4Sn2As4,mp-8934
0.8565999999999998,-0.767836402,Ba1Mg2Sb2,mp-9567
0.6382000000000003,-1.5996373555357144,Ba4Sb2O1,mp-9774
0.0378999999999996,-0.7107134510483336,Tb6H18,mp-982384
2.4472,-1.7847486033582989,Rb2Tl1In1Cl6,mp-989550
0.29579999999999984,-2.8807664214031576,Ba4Fe4Cu2F28,mvc-12243
2.7288999999999994,-2.9789558382500005,Y4Mo4O12,mvc-14154
1.4796999999999998,-1.8222185557812507,Ho1Tl1S2,mp-1007665
5.4237,-2.7773191430227424,Cs4Li4B4P8O30,mp-1019606
0.05069999999999997,-0.5755717753387071,Rb16Mo16N32,mp-1029852
0.6214,-0.3049573496551723,Cs3Sb1,mp-10378
2.9934000000000003,-2.311908126665493,Rb8Te4Mo8P8O56,mp-10447
3.2325,-3.147239341250001,Ba2Lu1Sb1O6,mp-1078185
1.2245999999999997,-1.5773929095833341,In1Ni2Sb1O6,mp-1078367
0.20989999999999973,-0.7061028274479169,Zn1Ag2Sn1S4,mp-1079889
6.6635,-3.62944857321,Na2Al2F8,mp-1102077
2.2383,-2.1730437858333342,Ba1O2,mp-1105
0.05900000000000016,-1.434352506500001,Gd8Te12,mp-1105966
2.2741,-2.105731625556,K2Lu1Cu1Cl6,mp-1112229
0.004499999999999282,-0.8793386025000007,Gd2Pd2,mp-11427
1.791,-0.7245405074407462,K4Mg2P4Se12,mp-11643
3.8773,-1.7724683773058618,Cs2As2H4O8,mp-1185571
0.5741999999999998,-0.02511146736666641,Mg149Cd1,mp-1185581
0.11850000000000005,-0.01234488493333307,Mg149Nb1,mp-1185589
0.04370000000000029,-0.5614374674999998,Yb2Zn1Ge1,mp-1187944
0.7181000000000002,-1.3213292976470588,Y6Pt1I10,mp-1189258
0.1528999999999998,-1.263453228,Tb7Rh1I12,mp-1190279
2.0418000000000003,-1.1692269841852685,La2Tl4P4S14,mp-1190334
1.3852,-1.0051730947613635,K12Hg2Se8,mp-1191206
5.0419,-3.291317042873,K5Pr4Si4O16F1,mp-1192490
1.7542,-2.5199895473214293,Ba4Tb8S16,mp-1193223
2.138,-2.5752109517857136,Nd4Mo4Br4O16,mp-1193284
2.6846,-1.2375395393888549,Rb12Sb4S12,mp-1193319
1.1911,-0.8188106608743843,Cs12Ge4Te12,mp-1193606
1.8213,-2.513413929107144,Sr4Ho8S16,mp-1194314
2.205,-1.9389942341041682,Nd16Ga4Sb4S36,mp-1195907
3.0541,-2.523633693409631,Rb8Ba2V12O36,mp-1196343
5.1366,-2.30013484386218,Na40B8S32O128,mp-1197581
3.5295999999999994,-1.8527307202152783,Si6Ag12S36O126,mp-1198966
1.2619,-0.8348235649400128,Cs20P8Pd2Se32,mp-1199790
0.8871000000000002,-0.4337186785119048,Pr8Si16P48,mp-1200288
3.7496,-2.7772654092916675,Ba12B4Br12O12,mp-1200496
1.7605,-0.5523634151495633,Cs12As4P12Se36,mp-1201199
0.8272000000000004,-0.002326153125000729,P28Pb4,mp-1201560
1.9119,-0.8959740091217618,In4Hg12P6Cl18,mp-1201574
3.2919,-3.5507342208928567,Ba4Gd4Si8O26,mp-1202971
1.2759,-1.5267128973500013,Co18Te10Pb12O60,mp-1203045
5.0018,-3.048593378015556,Li2Sn1F6,mp-1205739
0.12400000000000012,-0.6463239145399996,Yb6H4Pb2,mp-1207559
1.3506999999999998,-0.8613758631339294,Tl12Cr8P12S48,mp-1208541
1.8777,-2.7546503948437486,Sr20Re12Br4O60,mp-1208774
1.5736,-0.5982458915039066,Tl8As40Pb8S72,mp-1209142
1.6023,-1.276982275771074,Rb4Ti2Ag4S8,mp-1209316
3.771,-1.7378674656681037,Rb4Ba8I20,mp-1209423
1.1214,-1.1715864979064037,Rb4Nb6Br18,mp-1209652
1.1587000000000005,-0.7349860889548613,Na10Ag2Ge4Se14,mp-1210225
3.2596,-2.3944972955,Na4Mg2Ge2O8,mp-1210431
1.6666999999999996,-2.95438587558875,Mn4Al4Si4O20,mp-1210817
0.032899999999999714,-0.2188096358333335,Lu16Mg4Ni4,mp-1211003
2.5999,-2.521855909427083,Li2Gd2S4O16,mp-1211108
4.4597,-2.5945927403000004,K2Lu2C4O12,mp-1211517
3.4213,-2.7496625083103448,K2Rb1Dy1V2O8,mp-1211702
3.9624,-1.8736381448125,K8Nd4Br20,mp-1211863
3.0702000000000003,-2.0184136278281244,K8Gd8Se16O64,mp-1212816
7.8626,-4.450874065059167,Dy6F18,mp-1212889
0.02470000000000017,-0.2538227884558821,La46Cd8Ni14,mp-1213625
2.6395000000000004,-2.2223030070276586,Cs1Cr1S2O8,mp-1213684
3.0192,-2.231138053850575,Cs1Cr1Mo2O8,mp-1213686
3.022,-3.0943316349224137,Ba12Na4Ta4V4O34,mp-1214664
0.9569,-2.3538717497339645,Tl12V14P10O62,mp-1217668
2.1219,-1.649197027814706,Sb6Cl18O2F8,mp-1219529
2.9953,-3.252213743532685,Rb4Ta4Ti4O20,mp-1219631
2.9851,-3.6414269585185193,Pr4Ta4Ti4O24,mp-1219788
1.0613,-2.017558843125,Nd6Mn1Si2S14,mp-1220237
2.4082,-1.6388459359615388,Nd4Si4Pb2S16,mp-1220623
2.6476,-2.4830220857057825,Mo4P8O30,mp-1221698
4.5543,-3.523593065083334,Lu1Sc1B2O6,mp-1222283
2.1561,-3.0021656346822234,Li2Mg2Co2F12,mp-1222326
4.2911,-3.2221968432244905,Mg2Zr8P12O48,mp-1222466
4.769,-2.8928071919932647,Li4Sc2P4H2O16,mp-1222849
3.3036,-1.6854663760576782,K6H2Se4O16,mp-1224049
1.1691000000000005,-1.8727922930357144,Ga1Sb3Pb4O13,mp-1224914
3.7163,-2.672733162465278,Ca2Ga2Bi2B4O14,mp-1227107
3.1538,-2.8230560486842116,Ca2Gd4Ge8O24,mp-1227314
1.1149000000000004,-3.1165902869682345,Ba1Sr1Mn2Al9Pb1O20,mp-1227545
1.5085000000000006,-0.5090751511979169,As4Ir4Se4,mp-1228810
0.8593000000000002,-1.264462471607143,Al2Zn2Cr2S8,mp-1228837
2.1786,-3.1085286357500004,Dy4Cr2Fe2O12,mp-1232352
1.7433999999999994,-0.6763952149479167,Cu2B2S4,mp-12954
1.6488,-1.0384150331848665,Cs2Pt3S4,mp-13992
3.5116,-2.047809500454545,Li12Zn2O8,mp-14495
1.7301,-2.5323576299550004,Sb36S16F156,mp-14673
2.7708,-1.9500593761190483,Na12Zn12As12O48,mp-14901
0.0045000000000001705,-0.9357996220454542,La3Ge4Rh4,mp-15009
0.09229999999999984,-0.4279146716666665,Ba8Li4Si12,mp-15521
1.7427,-1.4372478809159484,Sr24Sb24S68,mp-16061
1.7001,-0.5138173821981127,Rb4B4Se14,mp-16184
0.1959,-0.5830786724999998,Ba4Ca4Ge4,mp-16252
2.6075,-2.0713056693000005,Na12Cr8As12O48,mp-16383
3.6593,-3.754582278250001,Pr16O24,mp-16705
0.5374999999999996,-0.8802920978571426,Sr12Al4Sb12,mp-17667
1.1042999999999998,-1.7628109109907701,Mn3Cd2O8,mp-18870
3.983400000000001,-2.9726187364742858,Ba2Mn1B6O12,mp-18990
2.5881000000000003,-3.227439980384616,Ba4V2Si4O16,mp-19179
1.6342,-1.869714297637142,Mn4Sb8O16,mp-19231
3.8854,-2.4461397773333324,K1Al1Mo2O8,mp-19352
2.81,-1.7207523433750005,Te8Mo4O28,mp-19453
3.4701,-2.434456367083334,Pr4Tl4Mo8O32,mp-19490
1.7519999999999998,-0.07653417525250017,Pb4C4N8,mp-19727
1.1076,-0.7880540244709001,Ba6In4P8,mp-19913
3.5214,-1.4855319571733334,Cd1Cl2,mp-22881
1.3849,-0.9456636764444444,Na3Hg6I3O6,mp-23110
0.9640000000000001,-0.5668901602533332,Cl8O16,mp-23207
3.4996000000000005,-1.9491076855263159,Ge6Bi8O24,mp-23560
4.6558,-0.2292445773299997,Na2Al2H8,mp-23704
3.5117000000000003,-1.818298042293333,Ba2H2Cl2,mp-23861
2.3884,-0.8053709645542853,Hg4H4Cl4O16,mp-24294
4.7503,-2.2632546270249656,Rb4Mg4Cl12,mp-27208
1.8486,-1.58848442314394,Ag4Mo4O14,mp-27966
1.0263999999999998,-1.3905755425500004,K3I1O1,mp-28171
2.6938000000000004,-1.0714830633333337,Pb4I8O24,mp-28857
4.343999999999999,-0.8075677874183109,P8N12O2,mp-28950
2.6397000000000004,-2.7570152587760433,Ca9Ga12O27,mp-29226
1.7858,-0.5155549611111114,In8I16,mp-29312
1.6825,-0.9772616627104166,K48Sn16Se56,mp-29386
1.8559,-1.3505161843333326,Na12Tl4O8,mp-29454
0.8856000000000002,-0.4130030145714286,K4Be1As2,mp-29584
0.03690000000000016,-1.304124608125,La24C16Br24,mp-29994
0.00019999999999953388,-0.8214296355555556,Ce6Si2Pd10,mp-30155
1.6707,-0.6159082046875005,Tl8S20,mp-30520
1.4223,-0.4373897981818182,Ga2Pd1I8,mp-30946
4.3579,-3.94010456375,Sm4Sc4O12,mp-31118
0.09469999999999956,-3.196582563977273,La6Os2O14,mp-31353
4.758,-3.732196321750001,Er12Al20O48,mp-3384
6.6945,-4.343291661051251,Ba8Y6F34,mp-34578
2.7710000000000004,-2.962643791022728,Hf4Bi4O14,mp-35799
1.5010000000000003,-0.8345775742857141,Sr1Al2Te4,mp-37091
2.2014000000000005,-1.8513251687708336,La12Ga12S36,mp-4816
4.4539,-3.5813865924999995,Zr2Si2O8,mp-4820
2.0852,-1.2117873610291667,Na12Sn4S14,mp-4907
0.1120000000000001,-1.2181036499999998,Y1Sb1Pt1,mp-4964
5.0112999999999985,-2.3726512480680424,Cs8S4O16,mp-505782
3.2446,-2.682751489416665,K2Y2W4O16,mp-510264
7.1835,-4.063685369583,Ba4Ca2Mg2Al4F28,mp-540862
1.0595,-0.4350881044444448,Fe2Te2Br14,mp-540998
3.5439,-2.535293657857143,Ba4Tl4V4O16,mp-541006
0.29440000000000044,-2.498327681964286,Eu4Er8S16,mp-541052
3.199,-2.734590759475,Na2Mg8V6O24,mp-541220
1.7009,-2.243790836428214,Er4Au10F42,mp-541347
1.4453,-1.0135512600833334,K8Sn8S32,mp-541379
0.5010999999999999,-1.2890352374294671,Rb10Co4O8,mp-541389
0.6015999999999999,-0.9466344969897962,Ba12Ga4P12,mp-541715
0.4615999999999998,-0.5516058707217267,Ag8Hg2Ge4S14,mp-542199
5.4478,-2.8221217587427545,Na8B32O52,mp-542300
4.091,-3.24200410189394,Ba2Ca1B2O6,mp-549737
2.4064000000000005,-1.3815095884712507,Co4Te2Cl4O6,mp-550564
2.4579,-2.1233471248333338,K2Fe2Mo4O16,mp-554148
0.011099999999999888,-2.1260476760975613,Ba18Rh16O48,mp-554262
2.0525,-2.9219672533699983,Na2Mn2F8,mp-554517
4.4703,-2.1906279000673083,Na16Zn8S16O64,mp-554754
2.4251,-1.2090771637500004,Ru8O32,mp-554791
0.020700000000000163,-1.3487598871289066,Si2Ag12S2O16,mp-555015
4.5484,-3.1463414287225,Ba10Si2Cl12O8,mp-555087
1.4156,-2.9957984880404736,Cs2Mn1F5,mp-555223
3.4452000000000003,-2.2204890805128197,K10In2Mo8O32,mp-555710
1.7320000000000002,-2.519534761545454,Na2Sr6Bi2O12,mp-555812
3.5496,-2.849766965642857,Na4Sm4Ge4O16,mp-555904
1.6882999999999997,-1.3420835492692629,Cs12Ta8S44,mp-556091
4.5436,-2.3168480007635464,Rb2Li2Mo2O8,mp-556209
4.3549,-2.592391661813501,K8Sb8S4O16F24,mp-557470
2.6577,-1.2623844351785725,Al8Bi4S16,mp-557737
2.8327,-3.2654039004807696,Pr4Nb12O36,mp-558373
4.5184,-2.521657437148696,K4Ni4As12F72,mp-558932
2.7288,-1.8686411085714296,Nd6Si4S16Br2,mp-559237
3.8086,-2.6647937567083333,K2Nd2W4O16,mp-559456
0.14449999999999985,-2.0159522501364995,Sb8Br4F68,mp-559807
5.1193,-3.128682098191111,Mg20B12O36F4,mp-560026
1.3479,-0.9227625988506248,Au4Se4Cl4O12,mp-560549
3.2493,-2.57170538671875,Ca8V8Bi8O40,mp-560755
1.0127,-0.8538939774318185,K24Nb4As12O4,mp-561202
2.7935000000000003,0.0,F4,mp-561203
3.0526,-1.32536879983631,Li12B4S12,mp-5614
3.3347,-2.099362533656251,K4Sb4Mo4O20,mp-561478
0.7066999999999997,-0.6739676621875018,Fe4As4S4,mp-561511
4.428,-2.56224587520538,Cs4Cd1Ni3F12,mp-561567
0.4129999999999998,-0.6092899398886497,Cs2Ag6S4,mp-561902
3.9928,-2.499146698906478,Cs6Mo4O12F6,mp-562523
0.9080999999999996,-1.1767624867773434,Sr16Sn8Se40,mp-568525
1.3425000000000002,-1.8983376648033423,Cs2Er2Ta12Cl36,mp-568606
4.5899,-0.30864164478285666,Na4Be2H8,mp-568987
0.4775999999999998,-0.4642969975,Nb4I16,mp-570044
2.7093,-1.5264028669114285,Na4Pr16I28N8,mp-570548
0.9870999999999994,-0.7752975912301592,Sr36Sn24P48,mp-571291
0.16900000000000004,-0.8347587694186046,Sr42Cd8Bi36,mp-582108
1.7818,-1.2981872774349998,W8N4Cl36,mp-583581
3.1981,-2.394500539375,Li4Ga4O8,mp-5854
0.8105000000000002,-0.3985881828927206,Cs20Si4As12,mp-616140
2.6358,-1.9756866841111105,Na8Mo8As8O48,mp-622602
3.0454,-3.0724426555386906,K8Ti8P8O40,mp-6268
1.1015,-0.4453919930280175,Cs14Nb2In6As10,mp-631378
0.5328999999999997,-0.2669488206521736,Na10Eu1Sn12,mp-638558
1.1097,-0.980585574539836,V16P8S80,mp-648414
0.2850999999999999,-2.4906488357355965,La40Ti22S88O12,mp-662600
2.6214,-1.952644863365454,Re8N8O24F48,mp-667305
5.2743,-2.416759675038485,Cs4Li4S4O16,mp-6726
6.854,-4.014336049043333,Na2Er2F8,mp-674459
2.4277,-3.0427913674589964,Na2Ti4P6O24,mp-6761
1.2004,-0.72695624903125,K6Ta4As2Se22,mp-683905
5.5745000000000005,-2.9574740748674238,Sr8B64O104,mp-684018
1.6714000000000002,-1.4538004234375002,Al16S24,mp-684638
4.109400000000001,-3.6960635312471437,Ba8La12Si12O48F4,mp-686674
2.1303,-2.109160060625,Ca1Hg1O2,mp-7041
2.5253,-1.8786217111590908,Na8Cr8O28,mp-704459
0.6563000000000008,-2.0757833020982157,La2Zn2P2O2,mp-7060
5.3941,-2.177602516664643,K16Li4H12S16O64,mp-709186
0.1858000000000004,-0.9551941358908048,Rb2Pr2Te8,mp-7199
5.4769,-3.010879618667582,Nd2P6O18,mp-7264
3.8898,-1.3664945044742858,Be4H32I8O40,mp-734194
2.1756,-1.7025370116345142,Rb8Fe4H8Cl20O4,mp-735545
3.6469,-1.055072886616,Cl4O4F12,mp-753945
2.8158000000000003,-3.0040501384267246,Cs2Er2O4,mp-754055
2.8477,-2.9843890521767236,Cs2Dy2O4,mp-754138
3.3894,-3.299821907023809,Mg8Ti4O16,mp-757031
1.2214999999999998,-1.9705007814527025,Sr18Ni14O42,mp-759887
4.9882,-2.11940035108166,K2Ni1P4H8O16,mp-761179
2.937,-2.101719056763846,Zn2Fe2H8O4F10,mp-763244
2.7666,-1.5644097603537503,H4S8I4O32,mp-765597
4.2869,-2.6199235854340666,Na6Ca2P2C2O14,mp-767552
5.7623,-1.1187130221737505,Dy2Cl6O24,mp-768166
3.8169,-2.092324540634191,Y8Se12O48,mp-769147
1.138,-1.5273727882212644,Rb12Co4O14,mp-772572
4.5424,-3.42287801325,Ba6Si6O18,mp-776084
2.9102,-2.870299600694445,Ba12Ge4O20,mp-778602
0.5912999999999999,-1.199436307054598,Cs2O1,mp-7988
2.6486,-2.4484879853144057,Rb2Pt1F6,mp-8192
4.1558,-0.4325662225349989,K2N6,mp-827
2.2244,-2.9914348909722213,Ba2Nd4Pd2O10,mp-8514
1.8562,-1.0050223984642859,K4Ge4Bi4S16,mp-866646
3.5133000000000005,-2.8349815472222226,Ta2In2O8,mp-8979
4.5427,-3.1464818478030296,Ba2Mg1B2O6,mp-9259
1.4634999999999998,-0.13053626083333292,Mg4B28,mp-978275
3.0780000000000003,-1.4578213608660715,Ca4P4S12,mp-9789
4.5539000000000005,-2.812111181732966,Rb2Na1As1F6,mp-989523
0.99,-1.1649286116439657,Rb2Br1Cl6F1,mp-989573
0.2043999999999997,-0.6866955721008402,Ce1P12Ru4,mp-10069
0.07879999999999976,-0.9667934144285708,Ca3Bi1P1,mp-1013558
5.3993,-3.1706465181481485,Ba3Si2B6O16,mp-1019526
5.2185,-2.8618160091086957,Ba2Na2Li6B12O24,mp-1019555
5.6438000000000015,-2.163817844613192,Cs4B4S12O44,mp-1019717
3.4268,-2.186484377884616,Sr4Ge2S16O56,mp-1020704
2.3053,-1.2440583834250003,Na8Zn4S8,mp-1024067
0.10159999999999993,-3.0076314279758334,Ti1Cu1F6,mp-1025502
0.00010000000000021103,-0.927392428991724,Cs2V2N4,mp-1029293
1.3511000000000002,-0.5465633655541458,Na30Mo14N38,mp-1029862
0.11359999999999992,-0.7587217362698411,Sr2Ag2P2,mp-10667
0.5975000000000001,-1.1912515259374998,Ta4Tl4S12,mp-10795
0.14320000000000022,-1.0125860174999997,Lu3B3Pt6,mp-1095320
0.15700000000000006,-1.7850888238541671,Y4As4S4,mp-1102959
2.7796000000000003,-1.110616142947,Hg3Bi2S2Cl8,mp-1104411
2.4600000000000004,-2.232284984285714,Cr4Fe2O8,mp-1104680
2.1988,-0.7055575923660726,Tl2Sb2P4S12,mp-1105300
1.0798,-0.5731443611182954,Rb4Hg6Se8,mp-1105496
5.1171000000000015,-2.51370610099738,Cs2K1Tm1Cl6,mp-1112689
2.1166,-1.3104680479291664,K24Sn8S28,mp-1120789
0.00020000000000042206,-3.40288696671875,Ti6O10,mp-1147
1.4368,-0.8217009943749994,Sn1S2,mp-1170
0.4826000000000002,-2.0714936867109985,Mn28Ge4O48,mp-1172871
1.8565,-2.191016790595,Li3Ag3F6,mp-1176792
0.6200999999999999,-0.3895851407413794,Cs4Te16,mp-1178386
4.3603000000000005,-1.4605268738372919,K4H12Se8O24,mp-1180593
1.0463999999999998,-1.9611658827083336,Zr1S2,mp-1186
0.13949999999999996,-0.5631429125,Yb2Zn1Sn1,mp-1187958
0.3910999999999998,-0.7083555865000001,Ho6Cu6Sb8,mp-1189310
1.6540999999999997,-2.4819933354375,La4Sc4S12,mp-1190131
2.6017,-1.1731402862159088,Na4Ga4Ge2S12,mp-1190388
0.05090000000000039,-0.6416837415151521,Tm6B14W2,mp-1191016
0.1610999999999998,-0.3962245408333332,Tb16Ga6Co2,mp-1191472
3.809,-2.6764351554166668,Li2Ho2W4O16,mp-1191729
2.3587,-1.424969412742458,Rb4Ta2Cu2S8,mp-11923
1.1718000000000006,-2.024527745364584,Sr4Gd4Cu4S12,mp-1192362
0.7829999999999999,-1.4877100260714289,Ba4Lu8Te16,mp-1192634
3.1072000000000006,-1.371496424206732,Pb6Se4Br4O12,mp-1194412
3.3785,-3.498592983318181,Ba6Na2Gd6Si12O40,mp-1194728
3.1077000000000004,-2.2995923663404114,Rb14Nd22Te24Br32O72,mp-1195449
1.0615000000000006,-2.3084353484765634,Nd8Zr4S20,mp-1196300
1.2125,-2.6358257374537035,Ba12Y4Co8O30,mp-1196872
1.2272999999999996,-2.283664049101564,Y8Zr4S20,mp-1197050
3.2872000000000003,-1.996550432092917,K4Mn6H12S6O32,mp-1197395
5.2013,-2.239813239136219,Cs4P4H8O16,mp-1197651
1.4916999999999998,-1.0958546131388895,Hf5Tl20S20,mp-1198074
3.9708,-3.309482666902175,K4Na4Sm8Ta4O26,mp-1198935
2.321,-0.8706699053561544,Hg12H4N8O28,mp-1199625
1.3844,-1.0714808556744806,Rb8P4H16Se12O8,mp-1199971
2.0815,-1.7266203946401666,Re8S4Cl16O32,mp-1200983
2.7862,-2.165140144914965,B4P4Pb16O32,mp-1201606
3.6461,-2.2385638222527477,Ni4P8Pb8O32,mp-1202326
3.905,-3.109428181982965,K5Rb10Cr5F30,mp-1203661
2.6701,-2.847622654820096,Cs4Ti2P8O26,mp-1203715
2.964,-2.594606267339796,Na12Fe4P32O92,mp-1203748
1.7532000000000003,-3.3928270192045447,Gd12Mo4O28,mp-1204194
3.5411,-0.7265243333774993,Li4Al4C8N16,mp-1204402
0.125,-0.7796759005555559,Ba2Ag2Sb2,mp-1205316
2.7614000000000005,-2.1559132010499997,K1Ba2I1O6,mp-1205512
3.2051,-2.4577796117140003,Tl3Cr1F6,mp-1205742
0.9035,-2.5746732072329657,Rb2Na1Cu1F6,mp-1206176
0.26149999999999984,-0.9874774208333342,La1Bi1Pd1,mp-1206717
2.7984,-1.1179266366177782,W12Cl24,mp-1207828
0.022699999999999942,-0.6347401483333334,Tm16Cd4Pt4,mp-1208037
2.1213,-2.941252181758889,Tb4Pt4F28,mp-1208369
4.4431,-2.637348415451129,Sr1Tl2P4O12,mp-1208595
2.1364,-2.237745406873973,Rb4Sb8P4O32,mp-1209255
5.063,-2.5203636296237075,Rb8Lu4Cl20,mp-1209613
0.9415,-1.851158681523036,Nd12Se12N4,mp-1209975
6.8394,-4.209422645383,K4Y8F28,mp-1211492
4.0156,-1.867986203875,K8Sm4Br20,mp-1211730
3.6672,-1.589376812618181,Pr4H40N4Cl8O32,mp-1212120
1.0314,-0.4450486242134377,Cu4Te4Se4Cl4,mp-1213116
0.035299999999999436,-0.3308323994339623,Dy12Nb8Al86,mp-1213257
3.5988,-1.575032224857806,K12Sm8N36O108,mp-1213357
2.8231,-2.556807233276724,Cs8Gd4Cl20,mp-1213731
0.1925999999999997,-2.7965059036706346,Ce4Tl4P16O48,mp-1214015
4.0403,-3.3481536969877768,Ba8Na8Fe8F48,mp-1214635
0.011999999999999568,-1.7250066723214297,Zr2Ni1S4,mp-1215577
2.7076,-2.77201433236381,Ti8Te8O24F16,mp-1216939
0.049900000000000055,-1.7384967135119052,Sb3Rh1Pb4O13,mp-1219543
2.0483,-1.911039673342392,Nd6Cd1Ge2S14,mp-1220262
4.0057,-1.5784153284106246,Na8H8Se8O24,mp-1220837
0.1956,-1.388888143700001,Na1Co3O6,mp-1221438
0.2931000000000008,-1.82914428090125,Mn4Fe4Bi4O20,mp-1221879
1.1405,-2.8780986510520314,Rb30Mo18O18F84,mp-1222256
0.8464,-0.3575968799107144,In1Ag1Ge1Se4,mp-1223893
0.6357999999999997,-1.8442812665229884,Cs2Sb2Te2O12,mp-1225923
1.5117,-3.0487354320833333,Ca1Ce1V2O8,mp-1227255
1.9563,-2.906727453928572,Ba12Y2Re6O36,mp-1228593