band_gap,formation_energy_per_atom,full_formula,task_id
0.11990000000000034,-0.22444395847222212,Nd1In1Cu4,mp-1206278
0.0,-0.6012692549999997,Dy4Co4I2,mp-1206614
0.0,-0.8252676909999999,Tm4Cd2Pd4,mp-1207238
0.0,-0.2601329978571429,Yb4Cu20Sn4,mp-1207636
1.8350999999999997,-2.992502162427917,Tm4Se4F4,mp-1207668
0.0,-0.9965002356250006,Y10Sb2Pt4,mp-1207703
0.0,-2.60278744986,Sr12Mn4Bi4O24,mp-1208471
0.0,-0.10973106279999996,Ti12Zn88,mp-1208498
3.3955,-2.856031498238636,Sr6Li12Nb4O22,mp-1208770
1.3221,-1.780519387952,Sr4Au8F48,mp-1208951
7.425000000000001,-3.896989299720537,Rb2Y2Be2F12,mp-1209088
0.0,-1.488921436180371,Rb1Ru4O8,mp-1209548
0.0,-0.5707563757142857,Nd4Sn10,mp-1209854
4.9449000000000005,-2.9691706806454077,Na24Tb8P16O64,mp-1211011
0.0,-1.0782708041666673,La4Ni4As4,mp-1211387
2.744,-2.224292865666667,K2Cr2Mo4O16,mp-1211679
0.0,-0.9388505306500002,La30Ge18O2,mp-1212654
0.0,-0.6734064302222227,Dy10Si4B16,mp-1212823
0.0,-0.6835513193750007,Er6Fe4Si6,mp-1212880
3.1757999999999997,-3.8068377671249998,Gd12Sc8Al12O48,mp-1213017
0.0,-0.718464201944444,Dy4Si12Ni20,mp-1213227
0.0,-0.6028131833333327,Ce10Sn6Au2,mp-1213873
0.0,-2.594115122583333,Ba6Ce2Ir4O18,mp-1214640
0.0,-0.805145130777778,Yb18Zn9Sb18,mp-1216147
0.0,-0.7075258551666664,V9Cr3B8,mp-1216445
0.0,-0.4868453365,Sm8Al53Si17Ru12,mp-1219273
0.0,-0.3891847201915712,Rb5Sb4,mp-1219574
0.0,-0.5241316311029406,Nb10Ge6C1,mp-1220750
0.0,-1.5525548782023821,Na1Ti1V1S4,mp-1220884
3.1151999999999997,-3.533465426372023,Na1Pr9Si6S2O24,mp-1221010
0.0,-0.6710834607272731,Na8Eu4Si2As8,mp-1221214
0.0,-0.4129550362500005,Li2Sn1Ir1,mp-1222612
1.9462000000000002,-2.110632279864131,La6Cd1Si2S14,mp-1223157
0.0,-0.22268284875000005,La12Ga6Co22,mp-1223645
0.8713000000000002,-1.7037100797750007,K2V1Co6Cu2As5O24,mp-1223921
0.0,-0.6266618600000005,Dy1Zn1Si1,mp-1225041
0.0,-3.0254982835000015,Er2Sb1O2,mp-1225518
0.6429,-0.21621821458482202,Cr1Cu1P2Se6,mp-1226296
0.2439,-0.18659445943805877,Cs8Sn42Hg4,mp-1226308
0.0,-3.5036544760185198,Ce4Ti4Nb4O24,mp-1227002
0.8888000000000007,-2.0999660317361113,Ba2Co4Sn8O22,mp-1228162
0.36270000000000024,-0.4807189808333341,Al1Re1Si1,mp-1228809
0.0,-0.5200207175000005,Al2Fe1Ni1,mp-1228910
0.0,-2.9355584155,Ba2Ca1Re1O6,mp-12417
7.2193000000000005,-4.440871290865456,Ba1Er2F8,mp-12803
0.0,-0.614390485,Y2Cu2Sn2,mp-13202
0.0,-1.9955425302232142,Ce2Zn2P2O2,mp-13207
3.7147,-2.7689581308925,Zn1Sn1F6,mp-13903
3.6512999999999995,-1.8497017525595247,Ba12Al24S48,mp-14246
3.6112999999999995,-1.7923940067857147,Ca8Al16S32,mp-14422
4.087899999999999,-0.8045540585078903,Cs12P24N44,mp-16108
0.0,-1.338834353116362,Ta10N12,mp-1642
0.0,-0.47502788409090935,Yb2Al14Au6,mp-16625
0.0,-0.49295900687500005,La3Sn1,mp-1681
0.0,-2.250279808583334,Ba6Zn2Ru4O18,mp-17137
0.0,-1.883104661944074,Ag4Ru4F28,mp-17588
0.0,-0.6831760837500003,Sc10Sn6,mp-17695
4.7301,-2.6338243420335252,Cs1K1Na2Li12Si4O16,mp-17718
0.0,-0.83251426125,Y10Ge6,mp-17751
0.8224,-0.9583512764083325,Ca12Ga2N10,mp-17875
0.0,-0.5634915780357144,Mg4Ni8P4,mp-17942
0.0,-0.41669700399999987,Sr1Ga4,mp-1827
1.8939999999999997,-0.7941848666875,K8Al8Te16,mp-18347
6.2458,-3.333839858122143,K2Be6Zn2F18,mp-18509
1.8228999999999997,-0.4679607488235291,Sr6P28,mp-1853
3.6160000000000005,-2.6478808141666677,Li2Pr2W4O16,mp-18932
0.0,-0.9027962789999998,Na2O4,mp-1901
3.6492000000000004,-3.14861011,Ba4Fe4Si16O40,mp-19165
0.0,-1.3414268216266667,Rh1O2F6,mp-19790
0.0,-0.8412242833333331,Ce3Mg3Pt3,mp-19934
0.0,-0.3194993057692294,Sc1Mn6Ge6,mp-19936
0.0,-0.7234138741666669,Dy4Ge4Ru4,mp-19986
0.0,-0.7681407052777777,Ce2B2Pt8,mp-20051
0.0,-0.672121418333333,La4Zn4Sn4,mp-20190
0.0,-0.46537003916666686,Ca1In1,mp-20263
0.0,-0.3184601489166667,Nd3In1C1,mp-20385
0.0,-0.3523497394444443,Tb4In2,mp-20608
0.10210000000000008,-0.13507315343749937,Cu6Se4,mp-20683
0.0,-0.20197861166666561,Mn2Al2Ge2,mp-20757
0.0,-0.39561563404761796,P1Ir2,mp-2082
0.0,-0.5076463472727274,Dy3Cu4Sn4,mp-20844
0.0,-0.8061749227083345,Os4S8,mp-20905
0.0,-0.3823124987500006,Pr1Pb3,mp-20939
0.0,-0.8974664724999997,Nd4Ge4Rh4,mp-21044
0.0,-0.7530186055555563,Tm3In3Rh3,mp-21232
0.0,-0.5873595321822217,Ba12Ni12N12,mp-21653
0.9984999999999999,-0.7926467012552085,Na1In1Se2,mp-22473
1.9044999999999996,-1.9673200747222224,Bi4W2O12,mp-23329
0.35830000000000006,-1.5687065566724994,Cu2H4S2O10,mp-24522
3.9255,-2.400797075589324,Rb2Zn4P4H2O16,mp-24683
2.5979,-0.24346162650818182,Na10Al6H28,mp-24822
5.6715,-3.784479549223805,Rb10Zr8F42,mp-27316
7.389600000000001,-1.780510874111818,H12O2F8,mp-28003
1.6871,-0.34302253375000014,Tl4I12,mp-28329
2.0398,-1.0512271703448275,Cs4Hg2I8,mp-28421
0.0,-3.2328040720408158,Ba2Ta15O32,mp-28457
0.0,-0.44413980750000004,Ca1Tl1,mp-2861
0.0,-0.8238194574829999,Os1S2Cl12,mp-28865
0.2272999999999996,-0.49281760321428536,Nb8Si4Te16,mp-29072
0.13280000000000003,-1.8584857411471996,Lu1Nb6Cl18,mp-29339
0.0,-0.4602662177777776,Ca4Si6Ag2,mp-29570
0.0,-0.988954306433823,Ta18Co4S12,mp-29580
3.9250999999999996,-1.355244226599999,Ba2Si14N20,mp-29703
3.4337999999999997,-2.4622184574530435,Co2As8F36,mp-29758
1.1701000000000001,-0.2662866249553572,Hg12Se8I8,mp-29955
0.0,-0.40755502843750024,Mg8Au24,mp-30408
0.0,-0.3602753071428576,Dy10Ru4,mp-30622
0.0,-0.27724354875000046,Mg1Ni2Sn1,mp-30774
0.0,-0.9060269071428573,Ba8Bi6,mp-30892
0.0,-0.595424078,Y1Si2Cu2,mp-3390
6.9536999999999995,-3.564296131314,K1Mg1F3,mp-3448
0.0,-0.6225528833333328,Yb1B1Rh3,mp-3686
1.0983999999999998,-3.3582053867508335,Gd2S2F2,mp-3799
4.0713,-2.415891866614907,Zn3Ga1B6P1O12,mp-39215
0.0,-0.8972274162499998,Tm1Sn1Pd2,mp-3942
0.0,-2.335677784346,Ca4Mn2Ir2O12,mp-39440
2.6414999999999997,-2.9790793710227277,Pr4Sn4O14,mp-4394
0.31369999999999987,-0.9054430166666663,Dy1Ni1Sb1,mp-4510
0.0,-0.4782808062499999,V1Fe2Si1,mp-4595
1.2325,-1.8045346464062506,La4Cu4S8,mp-4841
0.02619999999999978,-0.5285087287933332,Ba20Co20N20,mp-505765
0.0,-0.4514969725757577,Hf10In8Rh4,mp-510052
4.4577,-4.123820166728947,Gd4Zr12F60,mp-530695
1.0290000000000001,-0.917844486785714,Nb6Tl4Br18,mp-541709
0.0,-1.0066673821257146,Ti12Al8Ni4N4,mp-542028
1.9141999999999997,-3.465217980238095,Sr2Ti1O4,mp-5532
3.3539999999999996,-2.965491577885878,Rb1Ta1P2O8,mp-554412
0.0,-1.6813776511666672,K2Os4O12,mp-554461
1.9285,-2.5797493399599998,Li2Co2F8,mp-554689
1.6451999999999996,-1.1647743596262765,Na4Nb8P4S40,mp-557436
1.046,-3.4586081435711113,Sr4Cu2F12,mp-557552
3.8215,-3.049694802312856,Sm4Mo4O16F4,mp-558638
3.8567,-2.337059931395089,Sm4Se6O18,mp-559755
5.6915000000000004,-3.887298362036667,Ba8Ta8F56,mp-559835
3.9852,-3.0003710111052713,Pr8Se6O20F12,mp-560263
3.8064999999999998,-3.21719291296875,Li4Ta4Si4O20,mp-560297
2.2439999999999998,-2.2642063742445058,P6Ir2O18,mp-560585
1.2081,-1.6560889215751233,Rb16Te32O92,mp-561228
3.3230999999999997,-2.220874897688334,Sb16O16F16,mp-561533
0.1036999999999999,-3.317804213738712,Cs6Na3Ti3F18,mp-562050
2.3503,-1.0768373681571077,Cs4P4Pb4S16,mp-562569
2.5548,-2.1266686775287362,Rb1Fe1Mo2O8,mp-563010
0.0,-0.6080302900000006,Yb1Si2Os2,mp-567093
0.0,-0.9106938099460002,Sr32Mn12N36,mp-567532
0.46750000000000025,-1.1515050814999999,K4Pr12Te32,mp-567710
0.0,-0.5926963181196582,Tm20In40Rh18,mp-567795
5.4991,-2.994088856587302,Ca8P16O48,mp-5680
0.0,-1.0252777028571438,Y8Sb6,mp-568320
1.257,-1.824379742565883,Na4Al12Ni4Cl48,mp-568785
0.0,-0.08936510600000033,La4Co6,mp-569054
1.9049999999999998,-1.0590521956517858,P24N8Cl96,mp-569386
0.23970000000000002,-0.7634587674563633,Ba4Ca16Cu8N16,mp-569603
0.4035000000000002,-1.374290880725,Na1La6Os1I12,mp-569905
0.0,-0.5438477493749989,Ce10Si6,mp-570175
1.5756000000000001,-1.1421957259617648,Bi48Pt8Cl80,mp-570417
0.0,-0.07423861183823653,Dy8Fe56C4,mp-571165
0.0,-1.048261048888888,Hf6Al6Pt6,mp-571619
0.0,-0.10847611916666662,Eu2Cd22,mp-583684
0.0,-0.6484044840625001,Ca12Ga12Rh8,mp-607230
0.0,-2.2263006950000004,Ba2Nd1Cu3O6,mp-614981
0.16080000000000005,-2.7788353455000006,Ba4Nd2Ru2O12,mp-6200
0.0,-0.21694086583333316,Zr1In1Cu2,mp-623134
0.0,-1.1750427745939933,Cs2Ce10Os2I17,mp-623165
0.0,-0.6272790299999997,Hf16Fe2Te12,mp-623814
3.8868,-1.730874453567779,Re2H6O10,mp-626799
0.0,-0.9060518304999995,Yb8Pt8Pb4,mp-630862
0.0,-1.9369035395394734,Tl16Mo32O104,mp-648007
0.3846000000000007,-1.146301710454545,Tb7Cu3Te12,mp-676524
5.8263,-3.141812767445055,Ca4Be8P8O32,mp-6772
0.0,-1.1717034698968427,La20Ga10Cl8,mp-680469
0.28859999999999975,-2.5070900243629723,Ba8Mn8O21,mp-694888
0.0,-3.5968739739333335,Sr18La2Ti20O60,mp-695042
3.7668999999999997,-1.741844347690486,K4P1H5Se3O16,mp-695043
0.0,-0.8182748591666673,Sc4Ni4Ge4,mp-7066
4.3086,-1.4658940216979999,Li4H8Br4O4,mp-754153
0.0,-0.222832732222222,Ta3Ge6,mp-7558
3.0504,-3.057953493875001,K1Gd1O2,mp-757021
2.4969,-1.798086085387647,Ba4Tl2H14O14,mp-757586
0.0,-0.8388676057291669,Nb1Se2,mp-7597
3.4540999999999995,-3.008701073211207,Rb2Sc2O4,mp-7650
0.0,-1.6278465512259628,Li10Nb14S28,mp-767171
3.7817,-2.3693505530119054,Na4Ga2P2C2O14,mp-768120
1.2568000000000001,-1.4353307715357146,K4I2O1,mp-768368
0.0,-3.504643363033855,Ba6Ta9Ti7O42,mp-773060
0.0,-0.3014570474999996,Si4Re4,mp-7948
0.0,-0.6534170744444445,Tm1B2,mp-800
0.0,-0.11479325666666658,Hf2Cr4,mp-819
0.0,-0.782395846,Sr2Sb4Pd4,mp-8468
0.0,-2.105957458411458,La6Al2Cr2S14,mp-861904
0.0,-0.3752478075000001,Sc2In1Ag1,mp-862337
0.0,-0.38312610250000034,Li1Be2Ir1,mp-862377
0.0,-0.5542632799999989,Ta1Al1Os2,mp-862445
0.0,-0.8824300674999996,Sc1Sn1Rh2,mp-862623
0.0,-0.8114202725000004,Al2Pd1Ru1,mp-862715
0.0,-0.29393618520833353,Pm1Ag2Pb1,mp-862876
0.0,-0.694798542708333,Pm1In1Au2,mp-862917
2.1239000000000003,-1.93835889215,K1Zn4Sb3O12,mp-863678
0.0,-0.27353335249999944,Mg1Tl1Rh2,mp-864902
0.0,-0.22324201999999893,Mn1Cu1Pd2,mp-864946
0.0,-0.3575770687500004,Mn1Si1Tc2,mp-864970
0.0,-0.5828759387499991,Mn1Si1Rh2,mp-865015
0.0,-0.6915622029166668,Ti1Zn1Ir2,mp-865048
0.0,-0.22077383737500034,Na1Ho1Tl2,mp-865096
0.0,-0.7643870200000009,Ce2Si2Ru2,mp-8653
0.0,-0.28172236124999994,Tm2Os1Ru1,mp-865383
0.0,-0.43546352625000007,Yb1Cd1Hg2,mp-865742
0.0,-0.30203619312499974,Ca1Nd1Zn2,mp-866220
0.0,-1.0338512923057144,Gd10C12Cl6,mp-866789
0.0,-0.4590508099999999,Li1Zn2Pd1,mp-867250
0.0,-0.619976914285714,Pr6Sn10Au12,mp-867370
0.0,-0.8226961287499996,Be1Si1Rh2,mp-867767
0.0,-0.2531663037499996,Sc1Nb1Tc2,mp-867795
0.0,-0.7868799774999999,Ca4Si4Pd4,mp-8842
0.0,-0.15365800666666685,Mg1In1Ag2,mp-973088
0.12950000000000017,-1.8275781959375008,Pr2Zn2Sb2O2,mp-975646
0.0,-1.2737794516666667,Pr2Te4,mp-975652
0.0,-0.06000950249999981,Mo2Ru6,mp-975834
0.0,-0.6089650200000003,Mg1Sb1Pd2,mp-977579
0.0,-0.4952268799999997,Tb1Y1Hg2,mp-978911
0.0,-0.2522047949999999,V2Pd6,mp-979980
0.0,-0.4793743754166666,Pm2Ag1Rh1,mp-982929
0.0,-0.4746951174999996,Pm1Sm1Hg2,mp-983063
0.0,-0.4705155410416664,Pm1Dy1In2,mp-983428
2.4838999999999998,-2.826186728564815,Ba8Nd8Zn6Pt2O30,mp-9837
0.0,-0.6166380746874989,Nb4As2C2,mp-9989
2.2710999999999997,-1.7492465572968752,Na1La1Se2,mp-999472
0.06380000000000008,-0.36026370679687414,Mn2Se2,mp-999540
0.0,-1.8219144090312502,K1Zr1S2,mp-1002123
0.0,-0.5550836016666665,Sr2Sn2Hg2,mp-1019259
3.2028999999999996,-0.9703072636899996,Zn4Si4N8,mp-1020712
3.8051,-2.0380837457938212,Rb4Ge2S12O42,mp-1021330
0.0,-1.0972311462500002,Tb2C2Br2,mp-1025023
0.0,-0.6239203619642849,Tb2Re2Si2C1,mp-1025189
0.0,-0.4465212207142858,Sc1Ga5Ni1,mp-1025191
0.0,-0.592195226020408,Mg1P1Pd5,mp-1025261
0.0,-0.8046154837500001,Zr4Ge4,mp-1025513
0.0,-0.7272079760199992,Sr6Os2N6,mp-1029686
0.8826,-0.9532592553057141,Ca6Ga2N6,mp-1029943
4.3134999999999994,-2.56830004246,Tl2Sn1F6,mp-10401
0.0,-0.6176956100000002,Tm2Ga2,mp-1065301
0.0,-0.7231865000000001,Sc2Zn2Pd2,mp-1071720
0.0,-1.0204202784920635,Ti3P3Ru3,mp-10739
0.0,-0.5326087616666667,Ca2Bi4,mp-1077466
0.0,-0.8365460599760006,La2Ni4As2N2,mp-1078408
0.0,-0.9059921449999999,Ho2Te6,mp-1078508
0.0,-0.6332321016666655,Sc3Ge3Os3,mp-1078635
0.0,-0.5792174355555559,Er6Mn1Te2,mp-1078859
0.0,-0.5843887183333334,Tm3Si3Ag3,mp-1079093
0.0,-0.7364974306666667,Tb2B4Ir4,mp-1079255
0.0,-0.5857516849999996,Gd2Ni2Ge6,mp-1079303
0.0,-0.4656720026666662,Gd2B4Os4,mp-1079837
0.0,-0.18392576250000037,Li1Pd7,mp-1079855
0.0,0.0,N10,mp-1080711
0.0,-0.21745576935344835,Cs4Hg4,mp-1080797
0.0,-0.905537741666667,Tb3Sn3Rh3,mp-1084759
0.0,-0.2603041811538456,Ca1Al8Cu4,mp-10877
0.0,-0.04595008620689625,Mg48Al39,mp-1094692
0.0,-0.49432690666666684,Nb4Ni4Ge4,mp-1101995
0.0,-0.2466506949999996,Ta3Be9,mp-1102049
0.0,-0.8843030533333334,Hf4Ge4Rh4,mp-1102945
0.9567999999999994,-0.08739463333333457,Sb4Te4Os4,mp-1103213
0.0,-0.901501498181818,Ce3Si4Pd4,mp-1103548
0.008600000000000385,-0.9030884766666661,Zr4Ge4Pd4,mp-1103608
0.0,-0.5845708314285716,Yb2Ni8As4,mp-1104102
0.0,-0.4345911454464278,Lu5Re2C7,mp-1104880
2.8985000000000003,-1.956099433035715,Sr4Si2S8,mp-1104926
0.0,-0.7731359374999993,Pr10Bi6,mp-1105548
0.0,-0.9100135781249996,Nd4Ge8Pt4,mp-1106223
0.0,-0.462171625416667,Ba2In4Rh2,mp-11078
0.0,-0.6605534886111114,Yb4In4Rh4,mp-11102
0.0,-0.2265806956896552,Sc5Re24,mp-11558
0.0,-0.3782459804545452,Ce2Zn6Ge3,mp-11665
4.084899999999999,-3.1354644417928332,Na3Mg4In1Si8O22F2,mp-1173861
0.0,-0.5410178887499999,Eu2Tl1Sn1,mp-1184286
0.0,-0.16222288930999973,H2Pd2,mp-1184548
0.0,-0.9387927674999998,Lu2Pd1Au1,mp-1185456
0.0,-0.5771139562499998,Mg1Cd1Pd2,mp-1185850
0.0,-0.43602186458333314,Nd2Tl1In1,mp-1186261
0.0,-0.3157979106250002,Pm1Er1Zn2,mp-1186562
0.0,-0.07859937249999938,V1W3,mp-1187702
0.0,-0.8722802205158734,La10P2Pb6,mp-1188357
0.0,-0.14639891125000037,Tb12Co4,mp-1188994
0.0,-0.9753184094999995,Y4Si10Ir6,mp-1189012
1.8432999999999997,-2.403074534937501,Pr4Sc4S12,mp-1189962
0.0,-0.26976269312499923,Tb4W4C8,mp-1190096
1.1161000000000003,-1.909765495340909,Eu8I12O2,mp-1191507
0.0,-0.424254426363637,Pr6Ga4Ni12,mp-1191719
3.1254999999999997,-1.957621791183334,K6As6O18,mp-1192552
4.8626,-2.590642748425764,Cs6Y4Cl18,mp-1192829
0.0,-0.26033035482758604,Nb2Co21B6,mp-1192832
1.3861999999999997,-1.9804000002678575,Ba4Y8Se16,mp-1193099
0.0,-0.3232243399999999,Cd2Pt2,mp-1194
2.7356000000000003,-3.2302917326041674,Li8Ca4Ta8O28,mp-1194523
2.8820000000000006,-2.9166227126793984,Ba8In8Si12S4O40,mp-1194952
3.2531999999999996,-2.754152804953703,Sr4Cd4B8O20,mp-1195626
0.0,-0.11370628337499937,Cr56C24,mp-1196316
0.0,-0.7139020827777769,Gd8Nb12Ge16,mp-1196603
5.600899999999999,-2.109601593930357,K4P8H20O32,mp-1197171
2.4712,-2.552500781560848,Fe4B2P6O24,mp-1197728
5.203,-3.451852406668362,Cs1Nb1F6,mp-11980
0.0,-0.3345656253048776,Er10Mn13C18,mp-1198824
0.0,-2.4669099929560816,Ce4Y11S22,mp-1199263
0.0,-0.0913898936842103,Tb4Co34,mp-1199370
0.0,-0.5673680287500004,Ho12Ni12Sn24,mp-1199966
0.0,-0.3272880426219514,Ho10Mn13C18,mp-1199972
0.0,-0.6995771837500001,Ho8Fe12Si20,mp-1200585
0.0,-0.8585444132142861,Yb24Sn16Pd16,mp-1202245
3.715,-1.9222478022878766,Mn6P8H24N4O32,mp-1204413
3.0331,-2.086669295138889,Ba12Ga4S16Br4,mp-1204726
0.0,-1.618870263108,V4Cl16,mp-1205372
0.0,-0.24718789875000055,Er1Ru3C1,mp-1206911
0.0,-0.488014848666667,Ba1B2Ir2,mp-12073
0.0,-2.271140669583333,Yb2Tl2W4O16,mp-1207513
0.0,-0.27199408972222255,Y12Co5Bi1,mp-1207809
0.0,-0.8099123166666674,Y12Ni4Ge8,mp-1207820
0.02059999999999995,-0.30864409764150935,Y12Ta8Al86,mp-1207857
0.0,-0.16220607592592667,Ti10Cu2Bi6,mp-1208323
0.0,-0.6977756579999991,Sm4Mg2Si4,mp-1208848
1.9703,-1.4944511124881035,Rb2Sb2Cl12,mp-1209179
1.8816,-1.2672865462189407,Rb6Ta4As2S22,mp-1209358
1.3559999999999999,-3.0102136930208325,Nd8S8O8,mp-1209906
0.0,-0.44670957844155884,Ni16Ge1P5,mp-1210211
0.0,-0.7049455587500004,Lu10Bi2Pd4,mp-1210532
4.6879,-3.386207953342001,Na8Ca4Zr4Si8O28F8,mp-1210579
0.0,-0.2875669010526318,Nd12Ni6Pb1,mp-1210867
3.0978,-2.7980508924999996,Li12Lu12Te8O48,mp-1211646
0.0,-0.5706473791666671,Ho4Zn4Sn4,mp-1212106
0.0,-0.913985235555556,Ho10Si4Sb4,mp-1212206
0.0,-0.15589291125000018,Ho16Mg4Co4,mp-1212342
0.0,-0.9923721333333333,Er4Sb4Rh4,mp-1213025
0.0,-0.8904093629166656,Dy8Si12Pd4,mp-1213111
0.0,-0.7846504237500005,Er10Sb2Pd4,mp-1213250
0.0,-0.2847762309259257,Er12In2Co4,mp-1213258
3.6355,-2.635187427600574,Cs2Tb2Mo4O16,mp-1213293
0.0,-0.6557967124166666,Dy10In20Pd10,mp-1213298
0.0,-1.149201865896666,Cu16As4Cl4O24,mp-1213317
0.0,-0.5245515501041673,Ca8In16Rh8,mp-1214064
0.0,-0.6934044171428574,Ce4Ni24P10,mp-1214085
0.0,-2.082054761916667,Ba6Cd2Ir4O18,mp-1214618
3.3031,-1.8487719255328572,As6Pb10O24F2,mp-1214667
2.5536000000000003,-1.669421332112159,As4Se4Br12F24,mp-1214921
0.0,-0.47880331857142877,Y3Ga7Cu4,mp-1216128
0.0,-0.9325079364285717,Y2P7Rh12,mp-1216134
0.0,-1.3116317883928577,Y6C2Br6,mp-1216138
0.0,-1.3024109926282057,V12Ga2Ge1S24,mp-1216887
0.0,-0.40065868619047607,Ti2Co3Sn2,mp-1217124
0.0,-2.8622228133891667,Sr2La1Mn2O7,mp-1218756
0.0,-2.5250614839166663,Sr4Pr2Fe6O18,mp-1218794
0.0,-0.5565661718749997,Sr4Ca2Sn10,mp-1218852
0.0,-0.760544308357143,Sm1Zn1Cu1P2,mp-1218991
1.4727000000000001,-1.9161378061944454,Sm12Sn1Ge4S28,mp-1219381
0.0,-0.6897106055000002,Nd1Ga3Pd1,mp-1220159
2.9665000000000004,-3.0814091542249997,Na1Ca1Mg1Fe1Si4O12,mp-1221075
3.8139999999999996,-2.6250217652629413,Na4Nd8N2Cl18O2,mp-1221346
0.0,-0.9403145086874993,Na4Ta6Se12,mp-1221424
2.1921999999999997,-0.8090004042721862,Mg2Ag4P4S12,mp-1222065
0.0,-0.7632958034999987,La1Ge2Ir1Ru1,mp-1222835
0.0,-2.992843265441999,La1Nd3Mn4O12,mp-1222962
0.0,-1.7737845542261914,Li1Ti2S4,mp-1223278
1.5293999999999999,-2.59667758474,K1Mg1Mn2Al1Ge3O10F2,mp-1223590
0.0,-0.41087219666666563,Ho3Er3Mn1Bi2,mp-1224021
0.0,-0.945333472619048,Ca22Sb20,mp-12241
0.0,-0.24393648876923021,Dy14Ag51,mp-1225847
0.0,-0.5907881455000006,La5Al15Cu2Au3,mp-1225911
1.7729,-3.0154687131496556,Cs2Mg2Co2F12,mp-1225938
2.2931999999999997,-2.4487676190105914,Cs3Rb5Mo12P12O68,mp-1226988
0.15910000000000046,-0.003391457499999362,Bi1Sb1,mp-1227290
0.0,-2.6233805935833336,Ba6Tm2Ir2Ru2O18,mp-1227963
0.0,-0.2992536174999998,Al1Si3W2,mp-1227997
2.7305,-3.118006427105263,Ba4Nb2W1O12,mp-1228131
0.0,-0.2897175402777788,B4Os1W1,mp-1228631
0.05339999999999989,-1.1334647737500012,Al1Cr4Cu1S8,mp-1228960
0.0,-2.067628081133333,Ba10Pr1Y4Cu20O40,mp-1229203
0.0,-0.8246690875000002,Er2Si4Ni2,mp-12382
0.0,-0.3185210290000008,Ni2Te4Pd4,mp-12463
1.5531999999999995,-1.0727021252011495,Cs2Er2Cd2Te6,mp-12488
0.0,-1.9456331703125005,La2Zn2Sb2O2,mp-12515
0.0,-0.6280396549999997,Ho1Ga2,mp-1256
0.0,-0.545670049833334,Pr4B16,mp-12569
0.0,-0.16920095291666706,Ca1Mg2Ni9,mp-12695
0.0,-0.9839635905000002,Tb4Si10Rh6,mp-12879
0.0,-1.2052031790476174,Ce2P2Ir2,mp-12920
0.0,-0.49090375833333333,Ce2Al8Co2,mp-13504
0.0,-0.6677834281250004,Nb10Si6,mp-13686
0.0,-0.28350978450549474,Ba1Cu8P4,mp-14785
0.0,-0.48321429596059173,Mg3Ni20P6,mp-14842
3.8561,-3.065459923424762,Ca4Mn8Be12Si12O48,mp-15539
2.2898,-2.19547601965625,K1Sm1S2,mp-15783
0.0,-2.7273172260000003,Ba4La2Ir2O12,mp-15889
0.0,-0.37254618749999935,Hf12Sb4,mp-15964
0.0026999999999999247,-0.4320057294927536,Ce6Co58Si8B20,mp-16083
0.0,-0.5195380075000001,Lu2Al8Ni2,mp-16509
2.7367999999999997,-1.3154791964909176,Rb12P4S16,mp-16863
0.08139999999999992,-0.40172279348214246,Mn8Si4Se16,mp-17367
1.6562999999999999,-1.3785826861899995,Ca8V4N12,mp-17892
0.3868999999999998,-1.1376138443229167,Ba3Cu6Sn3S12,mp-17954
0.0,-0.10668007928571452,Ca2Be26,mp-1845
5.2031,-3.613522303147778,La4Sn4F28,mp-18566
3.7948000000000004,-2.678794498987069,Rb2La2W4O16,mp-18605
2.5477,-2.9732401352499993,Sr4Ca2Mo2O12,mp-19116
0.0,-2.4137484912500007,Dy4Ni4O12,mp-19265
3.3680000000000003,-2.5388909972500002,Sr2Ni1W1O6,mp-19400
0.0,-2.663344858583334,Ti2Co2O6,mp-19424
0.0,-0.1756337316666675,In3Ni3,mp-19876
0.015100000000000335,-0.22326991285714318,Ni3Sn4,mp-20174
0.0,-0.3937739625000005,Dy1In3,mp-20236
0.0,-0.37026970861111125,Ca8In4,mp-20669
0.0,-0.40555367083333493,Zr1In1Ni2,mp-20744
0.0,-1.051280334136667,La2Ni2B2N2,mp-20881
2.8764999999999996,-1.8062152933333333,Ni2W2O8,mp-21179
0.0,-0.7392617369999996,Ce4Pd4Pb2,mp-21443
0.0,-0.48774589694444376,La3Mg3Ga3,mp-21509
0.0,-1.4976747460714277,Ce1P1,mp-2154
0.0,-0.3909926281818182,Ga9Ni13,mp-21589
0.0,-0.79683792,Tb8Ti12Ge16,mp-21712
0.0,-0.6938495541666659,Zr4Mn4Si4,mp-22227