band_gap,formation_energy_per_atom,full_formula,task_id
0.0,-0.6448230199999992,Gd2Al4Co1Ge2,mp-1078369
0.0,-0.6536917837499994,Nb2Pt6,mp-1078699
0.0,-0.9820956084999999,La2As4Rh4,mp-1079347
0.0,-0.6381802237500009,Tb2Ga4Ni2,mp-1079552
0.0,-0.2634125116666668,Pr3Mg3Ag3,mp-1079756
0.0,-0.9157008519999998,Pr2Ge4Pt4,mp-1079841
0.0,-0.8467708505555555,Tm3Sn3Ir3,mp-1080427
1.6839999999999997,-2.2753138126041677,Pr2Fe2Se2O3,mp-1080777
1.4272999999999998,-2.302146816729792,Ba2Ag2S2F2,mp-1086652
0.0,-0.6850565286111111,Nd3Zn3Pd3,mp-1087517
0.0,-0.2531880810000004,Ba2Tl8,mp-1091391
1.2995999999999999,-3.374311486750834,Ho2S2F2,mp-10931
1.8317999999999999,-1.342561782374483,Cs2Au2Cl8,mp-1095499
0.0,-0.5179802268181823,Pr2Al14Au6,mp-11034
2.5887000000000002,-1.3304677316071434,Al4Pb2S8,mp-1103722
0.0,-0.5412266658333333,Eu4Zn4Sn4,mp-11040
0.0,-0.702036637857143,Li4Sm4Ge6,mp-1104144
1.5415999999999999,-0.6348327345848219,Tb2Tl2P4Se12,mp-1105141
2.2504999999999997,-1.0670255538436484,Rb4Ag2P2S8,mp-1105212
0.0,-0.5312725925000009,Eu14Au6,mp-1106137
0.0,-0.6782816712500015,Gd12Pt4,mp-1106170
6.1271,-3.128892878314,K2Li1Ga1F6,mp-1111112
0.0,-2.296949124647379,Cs2Na1Eu1Cl6,mp-1112989
4.736000000000001,-2.9382193159536505,Na16Mg8P8O32F8,mp-11165
0.0,-0.12664593399999974,Be4Nb6,mp-11272
0.0,-0.29000624333333364,Tm1Cd2,mp-11311
0.0,-0.4631526608823536,Pr1As12Ru4,mp-1179919
0.0,-0.9366356299999996,Ho2Ir1Pd1,mp-1184593
0.0,-0.3430971754166663,Ho2Zn1Ag1,mp-1184634
0.0,-0.42627052583333347,La2Cd1In1,mp-1185193
0.0,-0.3567736856249999,Nd1Ho1Tl2,mp-1186309
0.0,-0.09450524625000067,Pm2Mg1Ru1,mp-1186472
0.0,-0.30541356250000007,Yb2Cd6,mp-1187653
0.0,-0.7389785334999999,Sc4Co6Si10,mp-1189235
0.0,-0.4276708185294119,Er4Ge6Os7,mp-1189287
0.0,-0.4494506581249995,Yb10Ir6,mp-1189800
0.0,-1.5416097344375004,Ta6V2S12,mp-1190092
0.22339999999999982,-1.764212127952381,Na6Os3O12,mp-1190635
0.0,-0.5203376819444449,Eu8Si12Ag4,mp-1191372
2.5063999999999997,-1.5616443984523816,S4I2O15,mp-1191944
1.1106000000000007,-1.5589773771257143,Dy12Te12N4,mp-1192365
0.0,-0.6115407152,Li8Ce7Ge10,mp-1192957
0.0,-1.7840173978509857,Cs4Ce4Si4S16,mp-1194418
2.6420999999999997,-1.8609875830644453,Na8Cd6H4C8O28,mp-1195487
3.9656000000000002,-3.0732210590833327,Na18Ho6Si12O42,mp-1195700
2.3476,-1.348588411527778,Li16Sn4S16,mp-1195718
0.0,-0.8090813028201966,V36P18C4,mp-1195743
0.0,-0.850553165992063,Tm4Co20P12,mp-1195792
0.0,-0.6182233187500001,Y24Sb8,mp-1196393
3.2462999999999997,-1.112925402755655,Rb12H24I36O108,mp-1196732
0.0,-2.4793809021452704,Pr4Lu11S22,mp-1196820
0.0,-0.6424873009523808,Er22In12Ge8,mp-1197179
0.0,-0.47973822382936476,Ba32Cu64P120,mp-1197658
1.9160000000000001,-1.6613972427513461,Nb4Al8Se8Cl32,mp-1198176
3.9248000000000003,-1.5997852780363717,K4Mg2H24Se4O28,mp-1198329
0.0,-0.6628967571875002,La20Ir12,mp-1199235
0.0,-0.42254217458333326,Ti12Fe12Ge24,mp-1199430
0.0,-0.6545014505555555,Tb8B24Ru4,mp-1200192
1.4854000000000003,-1.6420125691399994,Tb16Te12N8,mp-1201395
0.0,-0.252903273913043,Ti42Mn50,mp-1202079
0.4748000000000001,-1.674370682333333,Tb40Rh8Br72,mp-1203586
1.3742999999999999,-2.231277676605201,Na6La2Mn6As6O30,mp-1203724
0.0,-0.874945301315789,Ho10Si20Ir8,mp-1205124
3.8800999999999997,-3.285019685156251,Nd8Ge4O20,mp-1205383
0.0,-0.62274724575,Tb2Si2Ru4C2,mp-1205603
2.3817999999999997,-2.58948777575,Ba2Zn1Mo1O6,mp-1206097
5.0044,-3.507447587817448,Rb3Dy1F6,mp-1206148
0.0,-0.9118312000000005,Er1Bi1Pd1,mp-1206953
0.0,-0.6022888406249995,Sr6Sn8Bi2,mp-1208727
0.0,-0.6840259683333331,Pr4Zn4Ge4,mp-1209297
4.9856,-3.1687182393982316,Rb4Ho4P8O28,mp-1209471
0.0,-0.24669342291666693,Nd16Cd4Ni4,mp-1210076
0.0,-0.47525512124999914,Lu10Ni4Bi2,mp-1210651
4.9597999999999995,-2.9610177396632653,Na24Y8P16O64,mp-1210758
0.0,-0.6310994244444442,Lu4Co4B16,mp-1210846
0.0,-0.8000449550000006,Hf4Ni4As4,mp-1212191
0.0,-0.39805092416666693,Er4Ni4Pb4,mp-1213066
0.0,-0.1340994167496252,Cs6Na4Tl13,mp-1213698
2.0876,-2.156224971374521,Cs12Re4O20,mp-1213725
0.0,-1.0209125441666664,Ce2Si4Rh6,mp-1213768
0.0,-0.8257494855555557,Ce6Nb2Sb10,mp-1213895
0.0,-0.28620294999999923,Yb1Ga1Cu4,mp-1215637
0.0,-0.350365973076923,Tm1Al6Cu6,mp-1216745
0.0,-0.3867614576923072,Tm1Al6Fe6,mp-1216757
0.0,-0.35683961333333336,Ti1Al6Mo1,mp-1217017
0.0,-0.23409161972222256,Ti4Mn5V3,mp-1217201
0.0,-2.611194684642857,Sr1La1Ni1O4,mp-1218155
0.0,-1.7904535249218743,Sm1Y1Se2,mp-1218913
6.4977,-3.7440163836094253,Rb2Mg2Al2F12,mp-1219581
0.0,-0.9893664976190474,Pr2Ni3P4,mp-1219846
1.2182000000000004,-3.053284810250001,Pr4V2Fe2O12,mp-1219885
0.0,-0.38946974499999953,Pr2Tl3In3,mp-1219932
0.0,-0.17867219785714233,Nb1Zn3Ga3,mp-1220689
3.6504000000000003,-3.1203878115952386,Na1Pr9Ge6O26,mp-1221029
0.0,-0.4638118924999999,Mn1Al2Ni1,mp-1221656
0.0,-0.5012342670833329,La1Pr1Al4,mp-1222762
0.0,-1.9055643743378419,Mn26As18C1O57,mp-1223358
0.0,-0.9407704165476178,Ho6Co18P12,mp-1224463
0.0,-0.48865750678571374,Eu1Al8Si1Au4,mp-1225219
0.0,-0.2715806616666671,Er2Fe2Ru2,mp-1225543
4.9246,-2.9075321627457935,Cs2Ca1P2O7,mp-1226202
0.3325,-2.264974062144612,Cs2Co1Cu3F10,mp-1226314
0.0,-0.8058816930000006,Ce1Si2Os1Ru1,mp-1226508
0.0,-0.4497906224999996,Ca2Zn3Au9,mp-1227416
3.0541000000000005,-1.310562302410714,Ba4Al8Se16,mp-1228740
2.2957,-2.882621566482989,Cs2V2Ni2F12,mp-1228899
0.0,-3.069491131315455,Eu8Mn3Nb5O28,mp-1229284
0.0,-0.8473736095833336,Nd1Al3Pd2,mp-12734
0.0,-0.5999015841666662,Sm2Cu2Sn2,mp-12791
0.0,-0.51392140625,Nd2Al8Co2,mp-12896
0.0,-0.22455478299999973,K1Au5,mp-1298
0.0,-0.802708541875,Pd2O2,mp-1336
0.0,-1.5926408183924998,Pd2F6,mp-13679
4.273499999999999,-2.8663509234267233,Cs2Al2O4,mp-14069
0.0,-0.6949111101515151,La2B4Rh5,mp-14696
0.0,-0.55120729775862,Al42Pd16,mp-1498
0.0,-0.5387330749999997,Ca2Si2,mp-1563
0.012199999999999989,-0.42037073971014427,Tm6Co58Si8B20,mp-16092
3.434,-2.6388325318510533,Rb24Si12O36,mp-16194
0.0,-0.5930756806302523,Pr1Fe4P12,mp-16430
0.0,-0.7808415621428567,Ho6Ge8,mp-1675
0.0,-0.642237584444443,Sc8Si16Re12,mp-16794
4.4261,-2.918892352805555,Na8Si8O20,mp-16970
0.0,-0.9325291341666665,Ho8Si12Rh4,mp-17485
0.0,-0.6241321094444446,Er1B2,mp-1774
2.954,-2.502890471875,Sm2Tl2W4O16,mp-18041
0.37319999999999975,-1.1224383353846161,Sr1Ni4O8,mp-18898
0.0,-2.07134167125,Ba2Co2O6,mp-18965
0.0,-2.59939805725,Ba1Mo1O3,mp-19322
0.0,-0.9993619199999999,Y3In3Pt3,mp-19740
0.0,-0.2996860269696972,Ce2In8Co1,mp-19989
0.0,-1.0271418936666663,Ce4In2Pt4,mp-20357
0.0,-0.7221864766666665,Hf6Ga6Pd6,mp-20381
0.0,-0.5632540377777779,Dy1B2,mp-2057
0.0,-1.4474088809375005,Ta6Pb2S12,mp-20784
0.0,-0.9417188656426667,Nd3In1N1,mp-21022
0.0,-1.9560054387500005,Sr4Cu4O10,mp-21129
0.0,-0.7789045122222222,Ce3Al3Pd3,mp-21158
0.0,-0.3411792765151521,Sr4In32Rh8,mp-21756
0.0,-2.4188004377499994,Yb6Sb10O24,mp-22019
0.0,-0.1309082030952382,Hf4In10,mp-22050
0.0,-0.07925286868421129,Ce4Co34,mp-2216
0.0,-0.4103117277777781,Zr6Ga2Co1,mp-22167
0.0,-0.5404357878571427,Dy4Ga18Ru6,mp-22627
0.0,-0.9929911124999992,Ho4Ge4Rh4,mp-22670
0.0,-1.0846766087500002,La2I2,mp-22860
0.0,-1.8968594737745457,Ba2Cu3Cl2O4,mp-23085
6.3332,-1.8268510421733335,Be2Cl4,mp-23267
7.719,-2.018569157153333,B8H24N8F24,mp-24160
2.7238,-1.2687956603405761,Zn2H4Se4O16,mp-24547
3.3167999999999997,-2.4358955781451694,Na2Mn6P6H4O24,mp-24586
0.0,-0.08474153874999928,Re6As14,mp-2473
0.0,-2.3513954695312504,Pr1S1,mp-2495
0.0,-0.4310640699999997,Al1Ni3,mp-2593
4.1533999999999995,-2.6567364893670415,Li4Mn4P12O36,mp-26019
0.0,-0.906069719375,Ho10Sb6,mp-2681
2.5589,-1.9786731688719998,Na6Mn1Cl8,mp-27125
0.0,-0.6646813074999995,Yb2Sn2,mp-2806
1.0387,-0.547620036571429,K8Ge4Te16,mp-28126
0.0,-0.26712033836538496,Er10Ru10C19,mp-28472
0.0,-0.6217754655555565,Ce1Cr2B6,mp-2873
1.4712,-1.9735770391666658,Sb4W2O12,mp-28918
1.4765000000000001,-1.1491847359702563,Ba10Ti4N12,mp-28926
1.3081,-0.186078854912309,Bi8P12Se36,mp-28975
2.452,-1.9944669590393527,Ti2Se4O12,mp-29260
1.5012999999999999,-0.7890080509285714,K12Bi4Te12,mp-29379
1.4289999999999998,-0.9333863687799335,Cs4Bi12S20,mp-29531
2.4272,-1.3341545835949997,Na1N1O2,mp-2964
0.0,-0.6651358616666663,Y2Al2Ge2,mp-29736
0.04039999999999999,-0.9369536302380963,Zr5P7Pd9,mp-29932
0.0,-0.728849992,Ca4Si2Ir4,mp-30312
0.0,-0.35639614791666663,Er1In1Ag2,mp-30340
0.0,-0.2522654152777785,Er2Fe8B2,mp-3045
0.0,-0.6525097334999999,Er14Rh6,mp-30612
0.0,-0.4564665624999993,Hf6Nb4Ga6,mp-30644
0.0,-0.07348861275862067,Sr6Mg23,mp-30782
0.7424,-0.20175685249999953,Cu4Te8Br4,mp-31036
0.0,-0.7990286088888886,Sc6Te2Rh1,mp-31072
0.0,-0.2525321722222205,Hf6Co1Bi2,mp-31383
0.0,-0.8304021033333324,Tb2Sn2Au2,mp-31413
0.0,-0.9447167960000001,Dy1Si2Pd2,mp-3301
0.0,-0.5039243530555547,Li4B4Ir4,mp-3348
0.33119999999999994,-0.22994893800000044,Bi2Te3,mp-34202
0.0,-0.5916160556896547,Nb6Si7Ni16,mp-3640
0.0,-0.5926036274999994,La1Si2Cu2,mp-3995
2.1769999999999996,-1.4841105745238103,Tb8P8S32,mp-4672
0.0,-0.8159076640625003,Ta2Se4,mp-500
0.0,-0.3955175780357143,Ni8Sn4P4,mp-504909
0.0,-0.9573190718571425,Pr1Co2P2,mp-5054
0.0,-0.6779192776785712,Ti12Al8Ni4C4,mp-505538
0.0,-2.516546442083334,Eu4Sb4O16,mp-510637
1.4708,-0.27705966367857116,K12As44,mp-541000
5.4879,-1.8234545550279422,K4H20S8O36,mp-541415
0.0,-0.12768244280555555,Na12In8Ag4,mp-542681
0.0,-0.09401994250000041,Tl8Sb8Au8,mp-542839
3.4060000000000006,-2.663779089750001,Ba2Zn1W1O6,mp-548615
1.3331,-2.6009140950836636,Na4Mn2P10O30,mp-553997
0.0,-1.5066953810227284,Bi4Os4O14,mp-554545
2.8040000000000003,-2.802012428802381,K12Nb4P8O36,mp-554572
1.5334000000000003,-3.1309148046425,Mg1Cr1F6,mp-554955
4.908799999999999,-3.1131183954537027,Na4Sc4B8O20,mp-555447
3.1895000000000002,-1.7883569274999995,Cd2Te2Mo2O12,mp-555560
5.1689,-2.701442741455357,Na4Li8P4O16,mp-558045
2.5743,-1.8364111783928583,Pr6Si4S16I2,mp-558259
3.8260000000000005,-2.44802695270238,Na8Li10B6O18,mp-558455
2.9656000000000002,-3.0279631339749655,Rb1Mn1F3,mp-558749
1.8981999999999992,-1.8914561277864586,Er6Cu2Si2S14,mp-558980
5.1215,-3.1848451846396117,K4Lu4P8O28,mp-559395
2.7771999999999997,-2.2188209592130685,Na16Mo4S12O56,mp-559561
3.9050000000000002,-2.5821208712000008,Na2La2C4O12,mp-559868
1.2763000000000002,-0.922125234935065,Nb4P8S32,mp-559923
7.004199999999999,-3.756447410839322,Rb2Na1Al6F21,mp-560570
3.5262000000000002,-1.9897395238876925,Si4Pb16Cl16O16,mp-561110
2.4711999999999996,-2.1210518764829547,K8Cr4S4O28,mp-561541
0.0,-0.31609528812499976,Lu56In12Co12,mp-567143
0.0,-0.38377446833333373,B2Rh2,mp-567164
0.0,-0.11956804083333357,La16Mg4Co4,mp-569582
0.0,-0.8501755764705888,Yb4Sb6Rh7,mp-569590
3.5668,-2.405344733512644,Ba24Zn4In8Cl80,mp-569635
0.0,-0.8062296692307691,Ca56Mn4Bi44,mp-570149
0.0,-0.2531921800000001,Yb1Tl3,mp-570164
0.0,-0.4425812729999997,Pr1Al2Ga2,mp-570255
0.0,-0.421638178333333,Ca2Rh4,mp-571262
0.5947,-0.43922183477083365,K12In8As12,mp-583615
0.0,-2.6597655017708335,Sr4Eu8Fe8O28,mp-603128
0.0,-0.47452785363636385,Ba5Ga5Pb1,mp-605650
0.0,-0.3508309864285713,Ce4Zn8Ru2,mp-606377
0.0,-0.7723382775000007,Hf8Co12Si16,mp-607990
0.0,-1.1803748079120835,In1Cu6Cl1O8,mp-616501
1.8787999999999996,-1.5191241039770826,Sr12B4C4N4Cl8,mp-616577
2.2306,-1.3780395069163083,Cs4Nb2Ag2S8,mp-623028
0.0,-0.1648534609090911,Li1Fe6Ge4,mp-624492
0.7725999999999997,-1.3316659700130213,Gd6Cu2Si2Se14,mp-641576
2.4635000000000002,-1.4614382101574996,Cd2H2Cl2O2,mp-644222
0.0,-0.3804542410714288,La2Ga12,mp-644739
2.1843,-1.63793725626875,K4Fe4Se8O24,mp-654225
0.0,-2.2527259802272726,Sr6Cu2Pt2O12,mp-6595
0.0,-0.4100549874621212,Nd5In11Ni6,mp-669645
0.0,-3.9582739624489784,Ce17O32,mp-673643
0.9021999999999999,-0.6535999462500003,Li14V2As8,mp-673833
0.0,-2.4388126589696295,Na3Eu6Cl18,mp-676909
0.0,-0.8034151950000005,Hf20Zr4Te32,mp-678358
0.0,-1.012936160783731,La7P12Pd17,mp-680525
0.0,-0.5667189018750001,Sm6Sn26Rh8,mp-680553
0.0,-0.14086095709090915,K6Na52In96,mp-684127
0.0,-2.8140263976684854,Na2Fe16F48,mp-685231
0.0,-2.6478794025960006,Ca2La2Mn2Ru2O12,mp-690556
0.0,-0.6213196166666668,Ti1Al1Ni2,mp-7187
0.6433,-2.2217683203139997,K4Hg4F12,mp-7483
0.03670000000000018,-3.6651192506578942,Ho6Re1O12,mp-753766
3.9741999999999997,-3.1819413113749997,K1Tm1O2,mp-753774
3.7640000000000002,-2.1994365335494503,K6Ni2P2C2O14,mp-754510
4.1309,-2.8353072805000012,Yb4C4O12,mp-755213
0.0,-0.48349702361111113,Y2Ni8B2,mp-7559
2.3148999999999997,-2.2512624660529563,Cs12Tm4O12,mp-756459
0.8507,-1.3754452128756163,Rb4I2O1,mp-760417
1.4232,-1.644894336041667,Li4Pd2O6,mp-760483
0.0,-2.15453176684874,Te4P6O24,mp-766504
2.6041,-2.064380794632726,Li12Mn2O8,mp-770533
3.8063000000000002,-2.44176888140625,Er2Re6O24,mp-772838
2.8191,-2.667830267583333,Ba8Sb4O18,mp-801028
3.0901,-1.8674193099642855,Na12Sb4O12,mp-8076
0.9733999999999999,-2.8528288649600007,Ca2Pd2F8,mp-8161
2.9396,-1.4783466077259995,Li2N2O6,mp-8180
1.0229000000000001,-2.744223355122769,Li16V6P16O58,mp-849522
1.8988999999999998,-1.6406913004454025,Rb12In4O12,mp-849527
0.7737,-1.6157386246425003,Pd1Pt1F6,mp-8547
0.0,-0.05193970624999977,Tc6Ru2,mp-861630
0.0,-0.5571455441666657,Ta1Ti1Ru2,mp-861908
0.0,-0.658474674999999,Ho2Ru1Rh1,mp-861965
0.0,-0.11005554187499911,Re6Ni2,mp-862604
0.0,-0.28810526770833444,Pm1In1Ni2,mp-862922
0.0,-0.5680254193750001,Pm1Tl1Au2,mp-862965
0.0,-0.5288812316666673,Pm2Ag1Ge1,mp-862979
0.0,-0.09813010562500057,Pm2B6,mp-862984
0.0,-0.6896922599999993,Er2Ru1Rh1,mp-863666
0.0,-0.7563310999999997,Er1Cd1Pd2,mp-863738
0.0,-0.13224466875000007,Li1Mg2Zn1,mp-864762
0.0,-0.4101605893749998,Hf2Co1Re1,mp-864877
0.0,-0.4222966562499999,Mg1Zn1Au2,mp-864922
0.0,-0.40804964708333324,Dy2Cd1In1,mp-864973
0.0,-0.38777481199999925,Gd1Al2Si2,mp-8651
0.0,-0.26328573050000026,Na1Nd1Tl2,mp-865122
0.0,-0.6384399725000005,Hf2Mn1Ir1,mp-865138
0.0,-0.2565996849999994,Yb1Ta1Ru2,mp-865172
0.0,-0.2614936849999996,Lu1Mg1Cd2,mp-865223
0.0,-0.8620746525000005,Lu1Mg1Pd2,mp-865253
0.0,-0.33409245,Tm2Co1Ru1,mp-865304
0.0,-0.6222171091666668,Ti1Ga1Ru2,mp-865448
0.0,-0.2787600149999996,Lu1Zr1Co2,mp-865461
0.0,-0.2984982020833331,Y1Cd1Ag2,mp-865503
0.0,-0.33783115750000015,Y1Mg1Zn2,mp-865515
0.0,-0.27361049375000057,Mn2V1Ge1,mp-865554
0.000700000000000145,-0.19189257599999987,Na4Mg2Sn2,mp-865625
0.0,-0.5666770825,Li1Zr1Ir2,mp-865925
0.0,-0.5440020083333339,Ti2Tc1Pd1,mp-865931
0.0,-0.3001125493750001,Ca1Sm1Zn2,mp-866061
0.0,-0.32488764374999946,Hf1Zn1Co2,mp-866096
0.0,-1.8394891833420146,Ce6Si2Ag2S14,mp-866605
0.0,-0.3315014614062499,Sr34Li12Hg18,mp-866669
0.0,-0.6179117356249995,Sm1Mg1Rh2,mp-867240
0.0,-0.5498664656249996,La1Bi3,mp-867248
0.0,-0.36445281750000014,Ho2Cu1Ru1,mp-867283
0.0,-0.774924659999999,Sc1Zn1Rh2,mp-867769
0.0,-0.5790361837499995,Dy1Cd1Rh2,mp-867900
0.10150000000000015,-0.63258814375,Ba2Sn1Hg1,mp-867912
0.0,-0.34083307320000034,K2Au3,mp-8700
0.0,-0.6485321994444446,Gd3Ag3Ge3,mp-9341
0.0,-0.14866300374999986,Nb1Zn3,mp-953
0.0,-0.546136765,Ta4Ge4Rh4,mp-972224
0.0,-0.3531696487499998,Ho1Lu1Zn2,mp-973333
0.0,-0.5829051712499993,Ho1Hf1Ru2,mp-973890
0.0,-0.4701491916666667,Lu2Ga1Ag1,mp-973964
0.0,-0.8517984800000002,Ba2As4Pt2,mp-9769
0.09250000000000025,-0.2496996875000006,Nb1Ga1Fe2,mp-977410
0.0,-0.6979779749999997,Er1Zn1Rh2,mp-977538
0.0,-0.5548315670000001,Sr1Ge3Pd1,mp-978987
4.041600000000001,-2.6130170010473335,Li1Tl2In1F6,mp-989551
0.0,-0.48696886968749986,V4Ge2C2,mp-9957
0.0,-0.8378673272916664,Tl2Ag2O4,mp-997010
0.0,-0.9422509849999999,Y1Bi1Pd1,mp-1008624
0.0,-0.26328777172413953,Ni21B6Sb2,mp-10123
0.0,-0.3070133112500004,Fe1Sn1Rh2,mp-1018062
0.0,-0.5595071450000008,Eu2Sn2Hg2,mp-1018701
0.0,-0.5373144491666668,La2Zn2Ga2,mp-1018757
4.877000000000001,-2.6949298515027476,K6Li2P4O14,mp-1019794
0.0,-0.61360627,Ta1Rh3,mp-1020
1.6585999999999999,-1.0068863142159095,Na12Zn2Se8,mp-1024047
0.0,-0.40387243916666665,Er1Ni4Au1,mp-1025001
0.0,-0.5166473534374996,Al2V4C2,mp-1025497
2.7095000000000002,-0.5775384949519996,Li8Ge4N8,mp-1029776
0.49650000000000016,-2.2401967217995695,Sm20S38,mp-10534
0.0,-0.9342070910714284,Ta2P2,mp-1067587
0.0,-0.5730507159999995,Ce1Al3Au1,mp-1070063
0.0,-2.9928571235,La2Bi1O2,mp-1070601
0.0,-0.8483334566666668,Pr4Sb2,mp-1071848
0.0,-0.4951068849999996,Yb2Fe2Si2,mp-1072082
0.0,-1.1340717875000006,Nd2Si2Pt2,mp-1077762
1.5932000000000002,-2.7119055840155557,Na2Tc1F6,mp-1078535
0.0,-0.5646473375,La2Ni4Sn4,mp-1078717
0.24529999999999985,-1.9973870702975,Ba2Zn2As2F2,mp-1079320
0.0,-1.8642565900685713,K1Mn16O32,mp-1080221
0.0,-0.6201214216666665,Dy2Sn2Ge2,mp-1080405
0.0,-0.6857384361785706,Tb2P2Ru4C2,mp-1080794
0.0,-0.4417814276666661,La2B4C4,mp-10852
0.0,-0.9215169224999995,Dy2Te6,mp-1086673
0.0,-0.8387508295000003,La2Ga4Pd4,mp-1092301
0.0,-1.1919304949999998,Tm2Te2,mp-1094027
0.0,-0.5568839209090913,Sr3Ga4Ir4,mp-1095369
0.0,-0.4551889869444447,Ce2Ni8B2,mp-1095459
0.0,-0.3240328491666678,Zr4Tc8,mp-1095545
0.28049999999999997,-1.4200409695312501,Er4As4Se4,mp-1102033
0.0,-0.20374417333333264,Dy4Re8,mp-1102210
0.0,-0.9952281913888884,Ti4Si4Ir4,mp-1103248
0.0,-0.21950437392857122,Nd6Ga2Co6,mp-1103877
0.0,-0.6423759282142859,Ho3Ga9Pd2,mp-1104210
0.0,-0.6901063866666666,Eu9Au6,mp-1104457
3.2925999999999993,-1.1506518662313157,Ni3Se4Cl2O10,mp-1105005
0.0,-0.3438658307894729,Ho1Co12B6,mp-1105128
0.0,-0.41996567562500076,Pr12Ir4,mp-1106395
0.9994000000000001,-0.42505756449609366,K2Cu2Pd2Se10,mp-11114
0.9808999999999997,-0.4252268897891973,Rb2Cu2Pd2Se10,mp-11115
0.0,-0.4781150944444445,Ta3Si6,mp-11192
0.0,-0.5610497011111116,Y6Fe1Sb2,mp-11202
1.2319999999999998,-2.506132037557501,Na1Fe9Si6B3H2O31,mp-1121875
0.0,-0.3361729499999999,Dy1Tl1,mp-11374
0.0,-0.2487430865000001,K4Hg4,mp-11462
0.0,-0.026211825000000077,Tl1Hg1,mp-11473
0.0,-0.09082174250000019,Ni6Mo2,mp-11506
4.4276,-2.3303357644581277,Cs1Li1W1O4,mp-1178391
0.0,-0.6393281177083336,Er4B8Ru4,mp-1181423
0.0,-0.694460013125,Er10Bi2Au4,mp-1181438
3.3045,-0.60805830958,Ba1Na1H6Ir1,mp-1182061
0.0,-0.19623414374999992,Cd3Pt1,mp-1183641
0.0,-0.39389738750000003,Dy2In1Ag1,mp-1184170
0.0,-0.003440504999999483,Er2Tm6,mp-1184302
0.0,-0.36294455625000044,Eu2Zn1Ga1,mp-1184310
0.0,-0.09128343750000134,Gd3I1,mp-1184423
0.0,-0.7797570887499994,Gd1Er1Ir2,mp-1184499
0.0,-0.5131562325000001,Li1Be2Pt1,mp-1185317
0.11079999999999979,-0.010300688049999849,Mg149Re1,mp-1185583
0.0,-0.3156609293749999,Pm1Dy1Zn2,mp-1186553
0.0,-0.267008936249999,Ta3Os1,mp-1187197
0.0,-0.3117161262500012,Ta1Tc2Ge1,mp-1187252
0.0,-0.903688463125,Yb1Sm1Au2,mp-1187504
0.0,-0.34650479249999977,Yb1Y1Zn2,mp-1187506
0.0,-0.1241715012500002,Zn1Ru2W1,mp-1187921
0.46789999999999976,-0.018790641466666404,Sr1Mg149,mp-1188044
0.9847999999999995,-0.19702595500000014,Te12Ir2I6,mp-1188875
0.0,-0.19188037684210563,Ta2Be17,mp-1189402
0.0,-0.8719568211764707,Ho4Ge6Ir7,mp-1189529
0.0,-1.3894760244375006,Ta6Rh2S12,mp-1189957
3.0638,-3.117200215520834,Al8Cd2O14,mp-1190488
0.0,-0.6603710722727275,Eu4Al6Au12,mp-1190659
0.0,-0.6485636494444442,Er4B16Ru4,mp-1191359
0.0,-0.5446975122727273,Tb6Ga4Ni12,mp-1192010
0.7339000000000002,-0.20592898007142882,K4Ge12As12,mp-1192374
0.0,-0.7591869997777783,Ti8Co8Si14,mp-1193657
0.0,-0.39397788739955175,Hf18Re8Se2,mp-1193800
3.6427,-1.8434725554800002,Ba4Sn4H24O24,mp-1195130
2.7687,-2.5284127707954553,Sm4Fe4Ge8O28,mp-1195316
0.0,-0.6614783757894735,Tb6Al24Ru8,mp-1195573
1.4655999999999998,-0.9241474547619043,Ba18Al18P30,mp-1196964
0.0,-0.9093557972222226,Tm3Sn3Rh3,mp-11974
0.0,-0.6920183330555558,Ho8B24Ru4,mp-1198017
0.0,-0.25059503371093683,Nd12Re5C15,mp-1199583
2.2504,-1.4337270026428581,Na4La4Ga16S32,mp-1199865
0.0,-0.8648773622420644,Er5P12Ru19,mp-1200410
0.0,-2.4891816355236496,Nd4Er11S22,mp-1200469
1.4041000000000001,-2.6390559540337635,Cs6Nb18Te8O64,mp-1201443
0.14089999999999997,-2.402981004169207,Nd4Nb4S14O60,mp-1202258
4.7688,-3.7845422362443597,Tm16B4Cl4O28,mp-1202632
2.7394,-2.776638667608572,La8Mo8Cl8O32,mp-1204388
0.0,-0.6616469861904761,Tb22In12Ge8,mp-1204441
0.0,-0.6051338508333318,Hf12Cr12Si24,mp-1204660
0.0,-0.5555921727500006,Pr2Si2Ru4C2,mp-1205551
3.4825999999999997,-3.6258950262499994,Sr2Lu1Ta1O6,mp-1205553
0.0,-1.1227520356321838,Rb2Mo1Br6,mp-1205757
0.0,-0.39212345888888894,Tb3Mg3In3,mp-1205951
0.0,-0.832118568,Ce4Sn2Pd4,mp-1206052