band_gap,formation_energy_per_atom,full_formula,task_id
3.4120999999999997,-1.7232407011364999,Ca16H48N16O80,mp-722900
2.6274,-1.682545872032667,Na2As6H4O18,mp-730154
2.3786,-2.7797767834127,Zr2Fe2P6Pb2O24,mp-743600
3.2296999999999993,-3.755879727142857,Ba4Tm8O16,mp-754599
4.753,-1.7760519672917185,Be4H8Se4O16,mp-757836
4.0956,-2.5621315641875,K8Li4Nb4O16,mp-759900
0.0,-2.4955710219044445,Li4Rh2F12,mp-7661
2.5530999999999997,-1.2899945154166668,Sb12Br12O12,mp-768372
3.1062000000000003,-2.7023944514999996,Lu6Sb10O24,mp-768483
2.8846999999999996,-3.23813790725,Lu6Ga6O18,mp-768505
0.0,-2.124361048098958,Eu4Se4O16,mp-769334
0.0,-2.618032046022728,La4Bi4O14,mp-770462
2.5217,-2.900038078613445,Ti3P6W1O24,mp-775198
0.0,-1.3985502923214292,V6S8,mp-799
0.0,-0.4836830083333332,Ba1Pt5,mp-811
0.0,-0.09279993349999975,Na1Cu4Sb2,mp-8607
0.0,-0.43643279270833446,Ti2Al1Re1,mp-861640
0.0,-0.14420052000000005,Li1Ag3,mp-862716
0.0,-0.5550680708333333,Li1In1Pt2,mp-862774
0.0,-0.38239368687499997,Pm1Rh3,mp-862959
0.0,-0.5752912075000003,Pm2Hg1Ge1,mp-863686
0.0,-0.3958474550000002,Dy2Ni1Ru1,mp-864917
0.0,-0.364433833999999,Gd8Re4C8,mp-864979
0.0,-0.6271095087499994,Mg1Ge1Rh2,mp-865162
0.0,-0.7870021349999998,Hf1Be1Rh2,mp-865163
0.0,-0.6957881337499998,Lu2Zn1Ir1,mp-865260
0.0,-0.3793465037499999,Y2Tl1Cd1,mp-865651
0.0,-0.09844622624999966,Ga2Cu6,mp-865798
0.0,-0.4140964275000001,Li1Zn2Rh1,mp-865912
0.0,-0.6807457587499997,Li1Si1Ir2,mp-865933
0.0,-0.2741966695833331,Lu1Cd1Ag2,mp-865977
0.0,-0.6681262799999992,Gd1Mg1Rh2,mp-866059
0.0,-0.6322490049999998,Pr1Cd1Au2,mp-867176
0.0,-0.43473127499999986,Li1Cd2Pt1,mp-867206
0.0,-0.11552222875000062,Sc1Tc3,mp-867262
0.0,-0.5592296587500005,Be1Si1Ru2,mp-867835
0.0,-0.37892698624999976,Cu1Ge1Rh2,mp-867917
4.523000000000001,-2.513588260952381,Li1Ge1B1O4,mp-8873
0.0,-0.4792219040972216,Sm1Ni2B2C1,mp-9220
0.45970000000000066,-0.5280382072222226,Ti1Ni1Sn1,mp-924130
0.0,-0.09667202500000016,V2Mo1W1,mp-972236
0.0,-2.01005160885,K1Tc1O3,mp-973267
0.0,-0.16014277874999983,Li2Zn6,mp-975799
0.0,-0.30519440062500003,Sm2Cd6,mp-979465
0.0,-0.3796943637500001,Yb1Pr1Cd2,mp-980044
0.0,-0.76487575125,Nd4Si4,mp-9967
0.9380000000000006,-1.2881121666071433,Mg2Cr4S8,mvc-91
0.0,-0.9932775733333337,Ce2Sb2Pd2,mp-1024986
0.0,-0.6947924523809519,Li1Yb1Cu2P2,mp-1024988
0.0,-0.4613988922916666,Ho1Cr2Si2C1,mp-1024999
0.0,-0.36156951833333356,Eu1Al3Cu2,mp-1025136
0.0,-0.45839308285714303,Tm1Ga5Co1,mp-1025257
0.05840000000000023,-3.7038236106578957,Tm6Re1O12,mp-10342
0.0,-0.43654579824999973,La3Pb1C1,mp-10611
0.0,-0.8875343999999998,Y2Au2,mp-1066254
0.0,-0.5029593849999998,Ba1Sn3Au1,mp-1068048
0.0,-0.7037482570000002,Ce1Co1Si3,mp-1070753
4.3169,-2.1096860250000002,Yb2Br4,mp-1071541
0.0,-0.23917391166666668,Li4Tl2,mp-1077191
0.0,-0.4130360583333334,Yb2Si4,mp-1077404
0.0,-0.3629573316666666,Yb1Cu4Pd1,mp-1077750
0.0,-0.6199318025,Ho2Co2Ge4,mp-1078737
0.0,-0.6490142155555563,Zr3Ga3Ni3,mp-1078832
0.0,-1.0357362188571428,Ce2P4Ir4,mp-1079211
0.0,-0.7684622324999992,Sm2Ge4Ir4,mp-1079613
0.0,-0.7064511587499993,Y2Ni2Ge4,mp-1079802
0.0,-0.7204242837499999,Dy2Au6,mp-1080590
0.0,-0.2676191941666666,Tc6B2,mp-1087495
0.0,-0.31406402,Mn2Al1V1,mp-10895
0.0,-1.1566936474999991,Y4Al4Pt4,mp-1095478
0.0,-2.02085569,Pr2Cu4O8,mp-1101476
0.0,-0.7463419657142855,Yb4Sn4Au6,mp-1103928
0.0,-1.164241951428571,Bi2Pd4O8,mp-1104660
1.3384000000000003,-1.8990785221562505,Y8Se12,mp-1105821
0.0,-0.7825575118750008,Tm6Ge6Ru4,mp-1105861
0.0,-0.9116799518750005,Dy4Ge4Pd8,mp-1106158
0.0,-0.7414236234999997,Nd4Ge10Ir6,mp-1106400
0.0,-0.6883347591666666,Yb4Mg4Pd4,mp-11098
0.0,-2.7017517813140004,K2Li1Ru1F6,mp-1111923
0.0,-2.6326514184053793,Cs2Na1Ru1F6,mp-1112013
0.0,-2.6355993079898625,Cs2Rb1Ru1F6,mp-1112166
4.677099999999999,-2.9723113534375005,Li8Mg4Si4O16,mp-11189
0.0,-0.35925201750000024,Li1Au3,mp-11248
0.0,-0.6537837916666671,Ho4Ga4Ni4,mp-11442
0.0,-2.0007140930468754,La1Se1,mp-1161
0.0,-0.6547709051851867,Ti6Si2B1,mp-11750
0.0,-0.3204058687500009,Tm4W4C8,mp-1178946
0.0,-0.5337078825000001,Ca1Ho1Hg2,mp-1183554
0.0,-0.32572614999999994,Ce2Hg1Pb1,mp-1183809
0.0,-0.8330025462500004,Er1Mg1Pd2,mp-1184235
0.0,-0.005213576250000074,Ho2Er6,mp-1184779
0.0002999999999997449,-0.020775396947618863,Mg149P1,mp-1185593
0.0,-0.07244975112500018,Na1Cd2Rh1,mp-1186122
0.0,-0.48299921937500034,Pm1Gd1Hg2,mp-1186623
0.0,-0.49183348812500016,Sm1Eu1Hg2,mp-1187040
0.0,-0.28254297500000014,Ta2Ru1W1,mp-1187211
0.0,-0.38115764374999994,Tm6Sn2,mp-1187649
0.0,-0.857528989375,Nd4Ga4Pd8,mp-1188832
0.0,-0.371094507647058,Ce1As12Os4,mp-1189855
0.0,-0.5719968912499995,Yb6Sn10,mp-1190232
0.0,-1.67435812075,Yb1Fe4Cu3O12,mp-1190316
0.0,-3.1714937351841677,Eu4Mn2Si4O14,mp-1190662
0.0,-0.7704343897619039,Tb2Ni12P7,mp-1190664
0.0,-0.08479741301136362,Dy2Fe17C3,mp-1190738
0.0,-0.2923764095833323,Hf16Co8,mp-1190841
0.0,-0.4765119106250009,Sm2Si4Ni18,mp-1191393
0.0,-0.4818953108333339,Ce2Si4Ni18,mp-1191823
0.0,-2.7248308264772745,Eu4Mo4O14,mp-1191878
0.0,-0.8166965963043482,La6Zn4Pd13,mp-1192004
0.0,-0.14734622446428602,La2Be26,mp-1193251
0.0,-0.8320778789655169,Sc6Al16Rh7,mp-1194154
0.0,-0.06955858482142828,La2Cu26,mp-1194443
2.2462,-1.801495119110577,V8Se8O36,mp-1194518
4.7924999999999995,-2.1342040905171435,Na10Lu2H8C8O28,mp-1195683
2.8072,-1.7596857996041675,Ag12Ge6S36O126,mp-1196546
3.1641,-1.1572563646018525,Na2In2I8O24,mp-1196607
3.388000000000001,-3.319432084886365,Sr4La8W4O28,mp-1196620
0.0,-0.10535270645320202,Cs1Rb14Tl27,mp-1197177
0.0,-0.7582971508333327,La8Sb16Ir12,mp-1198252
0.0,-0.8450223887698406,Ho4Co20P12,mp-1199038
0.0,-0.7498483668253976,Er4Fe20P12,mp-1200519
0.0,-0.6466765476315782,Y6Si24Ru8,mp-1201499
1.9233,-3.094106522857144,Nb16O40,mp-1201852
0.0,-0.8403142418253972,Dy4Co20P12,mp-1204813
0.1547,-2.4026851523399393,Dy4Nb4S14O60,mp-1204935
3.1259,-1.588850603433846,La8N24O72,mp-1205242
0.0,-1.030775979357142,Sm1P2Ru2,mp-12059
1.6058,-1.961744131474965,Rb2Na1Cr1Cl6,mp-1206059
0.0,-0.3815884430952384,Er1In5Rh1,mp-1206255
0.0,-2.023342478024966,Rb2Li1V1Cl6,mp-1206399
0.0,-0.27644693099999956,Sm4Cd2Cu4,mp-1206453
0.0,-0.26045594250000015,Sr1Tl3,mp-1206636
0.0,-1.1663068802681995,Cs2Mo1Br6,mp-1207229
0.0,-0.4524213435714281,Zn6Sn4Pt4,mp-1207463
0.0,-0.5231256583333336,Yb4Cu4Sn4,mp-1207590
0.0,-0.6848440352777784,Tm4Mn4B16,mp-1207706
0.0,-0.8963746279166666,Y8Si12Pd4,mp-1207726
0.0,-0.9598100555555568,Y8Si10Ir18,mp-1207756
0.0,-0.5421569450000011,Y4Ga18Ru6,mp-1207878
0.0,-0.6373674551666667,Tm10In20Pd10,mp-1207945
0.0,-0.8484564189285706,Tm4Al18Ir6,mp-1207988
0.0,-0.6427473221428569,Tm4Ga18Ir6,mp-1208073
0.0,-1.2187243065476185,Tb4Ni4P4,mp-1208320
0.0,-0.8855482207142862,Sm12Ge8Rh8,mp-1208959
0.0,-1.5948634549881042,Rb2W2Cl12,mp-1209078
2.9109,-2.951256684722223,Pr8Te4O24,mp-1209377
0.0,-0.7427404304571432,K1P2Rh2,mp-12098
0.0,-0.7324032093749997,Pr6Ge10,mp-1209801
0.0,-0.9143373968750002,Nd4Si4Pd8,mp-1209845
0.0,-0.6559208883333335,Nd12Co4Ge8,mp-1210091
0.9722,-1.5279575507861907,Nb6In4Cl18,mp-1210229
0.0,-0.1600510649999999,Mg4Mn2Ga6,mp-1210648
0.0,-1.7691495260204084,La12P4Br12,mp-1210981
0.0,-0.6048578682352937,Ho4Ga12Pt1,mp-1212255
0.09270000000000023,-2.945582648114286,K14Nb28P18O120,mp-1212978
0.0,-0.7912576274999997,Dy12Ni4Ge8,mp-1213457
3.7120999999999995,-3.141218149112903,Ba6Gd2B18O36,mp-1214653
0.0,-0.7097502880769228,Ce12Sn24Pd16,mp-1215117
0.0,-0.4261864490000001,Yb1Zn1Cu1Si2,mp-1215495
0.0,-0.029480343461538785,Zn20Fe6,mp-1215735
0.34319999999999995,-1.708943785238095,Zn6Co8Sb4O24,mp-1216036
0.30510000000000037,-0.2679354418750002,Tl2Bi1Sb1Te4,mp-1216579
0.0,-0.32482140083333394,Tm4Al4Fe4,mp-1216664
0.0,-0.2773693314285716,Te16Mo9Ru3,mp-1217440
0.0,-0.528902263333333,Tb3Dy1Al8,mp-1217691
0.3816999999999995,-2.5022810669999997,Sr1La1Fe1Co1O6,mp-1218163
0.0,-1.759139204193824,Sr4Mn2Cu3Se4O4,mp-1218497
0.0,-0.44405221249999965,Sm2Al2Zn2,mp-1219110
0.0,-1.1024251857142855,Sm2P3Pt4,mp-1219170
0.0,-0.8520541224999997,Pr2Nd2Sb2,mp-1219742
0.0,-1.2511713647023817,Nb2Ag1S4,mp-1220696
0.0,-0.577711364444444,Pr32In3Rh19,mp-1220898
0.0,-0.33549547250000167,V6Ge2,mp-1221
0.0,-0.6111188251587313,Mn12Fe4Co8P12,mp-1221995
1.4151000000000002,-1.0699036807812505,Li1Bi1S2,mp-1222404
0.0,-0.6441601908333331,La1Cu1Ge1,mp-1222919
0.0,-0.23700504124999947,La1Cu3Ni2,mp-1222942
2.3579999999999997,-1.7068920484667862,La16Si10N28O2,mp-1223370
1.4132000000000002,-2.5706702215448716,K3Ta3W6O27,mp-1223468
1.4098000000000006,-2.1210888026388894,La12Si4Sn1S28,mp-1223487
0.0,-0.5367949986666668,K1Si4Pd4,mp-1223845
1.6050000000000004,-2.9542243973863638,Ho4Fe2Sb2O14,mp-1224105
1.5122000000000004,-3.0937056087499997,Gd4V2Fe2O12,mp-1225231
0.0,-0.5240963991964287,Cr4Ga1Cu1Se8,mp-1226304
0.0,-2.5960277445833335,Ba6Y2Ru3Pt1O18,mp-1228458
0.0,-2.28088641175,Ba11Bi9O30,mp-1228932
0.0,-0.4509803649399995,Zn2Mo2N4,mp-1245674
0.3858000000000006,-1.5020647253566661,Mg1Ti1N2,mp-1245745
0.0,-0.6284951660199992,Sr6Rh2N6,mp-1245993
0.0,-0.7316272824454547,Ca6Fe6N10,mp-1246856
0.0,-0.912443459095239,Ti2Te2P1,mp-12527
0.0,-0.6371665908333336,La4Ni4Sn4,mp-12613
0.0,-0.600446891666667,Yb2In4Rh2,mp-12813
0.0,-0.21612247136363683,Tl9Pd13,mp-1297
0.0,-0.6783621366666667,Y4Zn4Ge4,mp-13160
0.7321,-0.9784688843749993,Cu1Rh1O2,mp-14116
3.4625,-3.668493617624999,Gd12Al20O48,mp-14133
3.4576,-2.67516169455,Ba4Na4Nd4Ge12O36,mp-14353
0.18369999999999997,-2.86718307875,Sr4Y2Ru2O12,mp-14430
0.0,-1.3459212041964281,Sc4Mn2Se8,mp-14928
0.0,-0.6075391649999998,Yb2Ir4,mp-1584
0.0,-0.3278904349999987,Ta1Ru1,mp-1601
0.0,-0.6642453913636359,Ca1As4Rh6,mp-16044
0.0,-1.3203795442519506,Li12Ca24Re8N32O6,mp-16181
1.4558999999999997,-2.244475712256945,Ba2La4Zn2S10,mp-16452
0.0,-0.29845129833333317,Ca2Zn4,mp-1725
5.7857,-3.0049565471637036,Na6Ge3F18,mp-17297
1.0945000000000003,-1.439299480879973,K8Rb4Co4O10,mp-17522
1.9689000000000005,-1.9995672385503471,La6Si2Ag2S14,mp-17719
2.3596999999999997,-1.1908246717544644,K12Al4Se12,mp-18217
0.3121999999999998,-0.42661610822916646,Ru4Se8,mp-1922
3.7586,-2.483180204558824,Al8Mo12O48,mp-19521
0.0005999999999994898,-3.070825617857143,Eu2V1O4,mp-19815
0.0,-1.4933660927083328,Ta2S4,mp-1984
0.0,-0.07688400438235356,Na1Fe4Sb12,mp-19844
1.1912,-1.7901479173214285,Li12Cu4O12,mp-19970
1.1795,-1.0447536423214285,Mn1Ga2S4,mp-20025
0.0,-0.8711906924999999,Dy2Ge2,mp-20122
0.0,-0.47988923291666685,Sm1In1,mp-20298
0.0,-0.7170592580357145,Zr2Si2Cu2P2,mp-20588
0.0,-0.4825772579999992,Y1Mn2Ge2,mp-20649
0.0,-1.1567237023571422,Hf12P8,mp-20672
0.0,-0.4921691558333334,Li2In1Pd1,mp-21029
0.37349999999999994,-0.2392503611875001,K16Pb16,mp-21526
0.0,-0.35993812399999997,Eu1Zn2Si2,mp-22133
0.0,-0.32270076333333364,Tb1Ag1,mp-2268
0.0,-0.5527436740178574,Bi4Pd6S4,mp-23012
0.0,-0.33813953750000003,Dy1Zn1,mp-2303
0.0,-0.26075483083333256,Pr1Ni5,mp-2370
0.0,-0.3165373832479997,Na2H2Pd1,mp-23954
0.0,-2.324025397031251,Dy1S1,mp-2470
0.0,-0.45041763666666634,Dy1In1,mp-257
0.31309999999999993,-1.9428497547600005,Mn16Cl6O20,mp-25773
0.0,-0.056242645949275215,Na3B20,mp-262
0.0,-1.7608069742968748,Y1Se1,mp-2637
0.0,-0.25273545166666683,Yb1Ni5,mp-2645
0.0,-0.46931425999999954,Sr2Si2,mp-2661
0.0,-0.8469518274999999,Zr4As8,mp-27606
4.0652,-1.8051509270673078,As8S8O36,mp-27739
1.8139999999999998,-2.1471256076583334,Bi1F5,mp-27743
0.024799999999999933,-0.5076075215000003,Ba4Ge8As8,mp-27810
0.0,-1.3801095040300009,Co1H1O2,mp-27913
1.4889999999999999,-2.1635982101973674,V4As2O13,mp-28337
1.8990999999999998,-2.3189895487172727,Cd8O2F12,mp-28855
4.3286999999999995,-0.5383904720599997,H12N4,mp-29145
0.0,-0.7619610549999992,Hf4As8,mp-29646
0.009400000000000297,-1.5336098683333328,Tb16B4Br24,mp-29847
3.5856,-1.9874980294318179,Sr8I12O2,mp-29910
0.0,-0.6758109922727275,Er7Ni2Te2,mp-29914
0.0,-0.5547421414285709,Ca10Au4,mp-30367
0.0,-0.6799146808333338,Lu1In1Au2,mp-30393
0.0,-0.6647027301388881,Nd1B2Rh3,mp-3055
0.0,-0.1995444716666667,Tm1Cu5,mp-30600
0.0,-0.6279007175000002,Dy2Ga2,mp-30604
0.0,-0.2242031907894734,Ho2Zn17,mp-30713
0.0,-0.5803889350000001,Ho6Al4Ni12,mp-30791
0.0,-0.3167218162499994,Zn1Pt3,mp-30856
0.0,-0.03445785749999963,Ta6Sn2,mp-30871
0.0,-0.709784560833333,La1B1Rh3,mp-3088
2.1323,-0.9530776185972221,Na16Si4Se16,mp-30931
5.4757,-3.008159031936813,Pr2P6O18,mp-30957
0.0,-0.18266559000000004,Mn1Al1Fe2,mp-31185
0.0,-0.28151828474999974,Li26Ga42Cu12,mp-31194
0.0,-0.8284049190384616,La12Sn24Pd16,mp-31295
0.0,-0.6399949077272727,Ho3Si4Cu4,mp-31423
0.0,-0.5050993905555556,Er3In3Ni3,mp-31427
0.0,-0.2199241584444444,K2Hg7,mp-31473
2.7536000000000005,-3.236369849250001,Sr2Ta1Cr1O6,mp-31624
0.0,-2.554563034000002,Ba2Fe1Re1O6,mp-31756
0.0,-0.48148751499999953,Hf1Ga1Co2,mp-3576
4.954,-4.250103831646666,Y2O2F2,mp-3637
0.0,-0.6321816978571425,Li4Ce4Ge6,mp-3770
0.0,-0.5739848145312507,Ta8Al2C6,mp-3802
0.0,-1.7507231663476555,Y4As1Se3,mp-38494
5.0725,-3.5884346225095833,Y6Pb8F34,mp-38916
0.0,-0.6037871724999995,Sm1Co2Ge2,mp-4334
1.8489999999999998,-3.5736505315833336,Sr2Ti2O6,mp-4651
0.0,-1.1173842028125005,Sc20As12,mp-505002
0.0,-0.18696231641142852,Fe12Mo12N4,mp-510619
0.9581000000000004,-1.3205014935714285,Zn2Rh4O8,mp-5146
0.5247999999999999,-1.0274481663461539,Ba56Al4Sb44,mp-530714
2.0957,-1.1816946254920981,Cs8S4,mp-540703
2.337,-1.995161951954862,K2V6Se4O24,mp-541520
3.7529,-3.0683681590985716,Dy4Mo4O16F4,mp-554213
3.4570999999999996,-2.701158164392858,K8Mg4P8W4O40,mp-555398
1.2043,-2.702901714346001,Sr4Mn2Mo2O12,mp-555929
2.2059999999999995,-2.975666133674603,Ti4Fe2P4O20,mp-556401
2.5848000000000004,-1.5317457846875007,Sn4Se8O24,mp-556672
7.1437,-3.881439364644359,K6Ca6Al12F54,mp-557743
4.1549,-2.873631760871849,Zr8P32O96,mp-557909
1.5253999999999999,-1.3899883809787497,Sb2Se12I2F12,mp-559000
3.6851000000000003,-3.300013466944445,Y8W4O24,mp-559510
3.5722999999999994,-2.4876404332204434,Cs12P4O16,mp-559808
0.0,-2.1115640710606907,Ba4Os6Cl1O18,mp-561099
4.6206,-2.9378690805041,Cs8W8F56,mp-561687
3.8005999999999998,-1.8241237822867913,Cs8Se4O16,mp-562442
0.0,-0.5482962559999998,Yb1Co2Ge2,mp-568902
0.6164999999999994,-0.9912545010208333,Ba12Na2Cu6Te28,mp-569168
0.0,-0.8610031166666664,Tb1Au2,mp-570179
0.0,-0.6379386360000006,Ba2Bi4Pd4,mp-571599
0.0,-0.3517429787619045,Li85Sn20,mp-573471
0.0,-0.7775612510021052,Sr8Fe3N8,mp-573523
0.14660000000000006,-3.477034217333,Ba4Ca2V4Cu2F28,mp-581167
4.457400000000001,-2.8518578098178216,Cs16Na8Al8P16O64,mp-581862
0.0,-0.8466209310000004,Tm4Pd4Pb2,mp-581968
3.7137000000000002,-2.8322724863140003,K1Zn1F3,mp-5878
0.0,-0.773246488333335,Ti1Ru1,mp-592
0.0,-0.3317193816666664,Ce4Ga24Cu2,mp-5981
0.0,-0.8322367449999994,Ce1Bi1Pd1,mp-604453
0.0,-0.4579028743229176,La21Fe8Sn7C12,mp-607917
0.0,-0.6276363492500003,Er8Mn12Si20,mp-622190
0.0,-0.6805732637096772,Ce28Si22Ni12,mp-624355
2.2292,-1.7399674442672421,Rb4Cr16Bi4O56,mp-642938
5.1556,-2.1488319857800002,Li2Al4H12Cl2O12,mp-643655
1.6395,-1.450299723276909,La6Si2Ag2Se14,mp-6485
1.2429999999999999,-1.4151895785136492,Cs4K4Cd6O10,mp-650532
0.0,-1.4589838834062503,Na1Lu1Pd6O8,mp-6533
0.399,-2.6014593611363637,Sr6Li2Ru2O12,mp-6721
0.0,-0.8119999368750008,La1Pd3,mp-674
3.3747,-1.8618616259559997,Li18In6Cl36,mp-676109
0.0,-0.7667098730999996,K8Ce4Ag12Te16,mp-680045
0.0,-1.3380126933789063,Eu12Sb16S36,mp-684111
3.7112,-2.347760301441441,K10Hf2In2Mo12O48,mp-695069
0.0,-0.9643123318253954,Hf3Mo3P3,mp-7032
0.0,-3.3040226022500008,Ba2Yb1Ta1O6,mp-7127
3.2464000000000004,-1.2789048361990005,Cd8H24N8O40,mp-722862
0.0,-0.379840536666667,Li2Pd1,mp-728
0.0,-0.2850356427142856,Cr2P8,mp-7302
0.0,-0.7958416188888892,Ba2Ag2As2,mp-7359
0.0,-0.39528303624999994,Sr10Si6,mp-746
2.5795000000000003,-2.3896814025520836,Ti2Bi4O10,mp-752676
2.3276,-2.9585194441666673,Ta2Cr2O8,mp-753467
4.6339999999999995,-2.8940294754599996,K12Er4Si12H8O40,mp-758527
0.0,-1.8206413147785712,Li2Cu6F20,mp-760825
3.5603999999999996,-2.879399565,Lu2As2O8,mp-7644
0.0,-1.4975796341176475,Sr3Rh16O32,mp-765543
0.8082,-2.401569418649572,Mn2P4O14,mp-771660
1.8235999999999999,-1.7226085261764699,Cr12Fe8O48,mp-776667
0.0,-2.1420913061162987,Rb2Ag2F6,mp-7767
1.0214999999999996,-2.393554719285714,Li4V3Cr3Sn2O16,mp-777670
0.0,-0.367950249583334,B4W4,mp-7832
1.2253000000000003,-1.724595130991379,Rb2Sn2O3,mp-7863
0.0,-0.6716652347499995,Sc3Ga1C1,mp-8577
0.0,-0.7779388325000003,Be2Pt1Rh1,mp-862600
0.0,-1.0686407175000001,Yb4Si4Pt8,mp-864645
0.0,-0.357881055,Mg1Ta1Ru2,mp-864903
0.0,-0.7715389183333334,Hf1In1Rh2,mp-865066
0.0,-0.33926208499999966,Mn1Ga1Ir2,mp-865088
0.0,-0.622418283,Na1La1Au2,mp-865098
0.0,-0.6314349124999996,Tm1Hf1Ru2,mp-865215
0.0,-0.33394274083333375,Ti2Mn1Ni1,mp-865712
0.0,-0.4241078702083332,Ti2Re1Ni1,mp-865728
0.005499999999999616,-0.585375465416667,Ti1Sn1Ru2,mp-865888
0.0,-0.4027506112499992,Ho1Ta1Ru2,mp-866116
0.0,-0.3619791187499999,V3Os1,mp-866121
0.0,-0.7756224249999999,Lu1Sb1Rh2,mp-866137
0.0,-0.5731349925000009,Ti1In1Pd2,mp-866168
0.0,-0.5811107887499998,Ce1Cd1Au2,mp-866185
0.0,-0.5625467918749996,Sm2Ga6,mp-867143
0.0,-0.4006244525000002,Sr1Li2Pb1,mp-867174
0.0,-0.7019099550000001,Li1Ga1Pd2,mp-867198
0.0,-0.5583582425000002,Li1Zn2Pt1,mp-867251
0.0,-0.26169192249999984,Sc1Cd1Hg2,mp-867263
0.0,-1.312444975,Tb1Te1,mp-867290
0.0,-0.23779060893333331,K4Sr2In14,mp-867362
1.7429999999999999,-2.153389868582974,Cs1Gd1S2,mp-9084
0.013600000000000279,-0.46619771611111105,Ti2Tl2Cu2Te6,mp-9344
0.0,-0.32329130874999934,Y8C10,mp-9459
1.0008000000000001,-0.9680184896562505,K4As2Au2S8,mp-9511
1.6991000000000005,-0.20267893218750022,Li4Si4B24,mp-973391
0.0,-0.7925460370833335,Er1In1Rh2,mp-977400
0.0,-0.5033906362499998,Yb2Zn1Pb1,mp-977424
0.0,-0.5976318362500006,Zr2Os1Ru1,mp-977549
0.0,-0.9787755138888896,Tm6Ge6Pd6,mp-980202
0.0,-0.1585895243750004,Sm6Hg2,mp-980429
0.0,-0.6806609470000002,Nb8Co8Si14,mp-984586
0.0,-0.17629881999999952,Al2Cu1,mp-985806
0.0,-0.8389487575000008,Tm2Ge2,mp-998911
0.0,-0.6765912509523803,Sm2Mn12P7,mp-1005829
0.0,-0.5463788200000004,Eu1Mg2Bi2,mp-1006146
2.8455999999999997,-0.5190793840934153,Bi4H36C6I18N18,mp-1016214
0.0,-2.807789107023125,Rb4Eu4P16O48,mp-1019728
1.7319999999999998,-2.960199883250001,Ba2Nb1Fe1O6,mp-1021504
0.0,-0.30529321527777736,La2Ag4,mp-1025059
0.0,-2.502050726377143,Re1F6,mp-1025374
0.0,-0.7640141175000004,Ce3Pd5,mp-1025404
2.4015999999999997,-0.2097473574134483,Cs1H1,mp-1057286
0.0,-0.4766415300000005,Ba3Al2Ge2,mp-10669
0.0,-0.8147704124999997,Tm2Si2,mp-1066975
0.0,-0.7078722400000004,Sr2Cu2Sb2,mp-10749
0.0,-0.553696353333334,Gd2Zn2Ga2,mp-1077244
0.0,-0.7209373599999994,Yb2Bi2Au2,mp-1077471
0.0,-0.30660028809523815,Sr1Ag4Sb2,mp-1077980
0.0,-0.6815927129999999,Ce2Ga6Pd2,mp-1078348
0.0,-0.9137597133333336,Yb3In3Pt3,mp-1078378
0.0,-1.1127949162500004,Pr4Pt4,mp-1078557
0.9386999999999999,-0.888645901666667,Tm2Ag2Te4,mp-1078600
0.0,-0.6878796929166668,Pr2Ag2Sb4,mp-1079478
0.0,-0.6538401116666661,Yb3Sn3Ir3,mp-1079709
0.9748999999999999,-3.0898275572500005,Ba2Gd1Mo1O6,mp-1079839
0.0,-0.5948226859999999,Dy4Ni4Sn2,mp-1079840
0.0,-1.998357988973214,Pr2P2Os2O2,mp-1080083
0.0,-0.4635077385714297,Ni2P4W2,mp-1086669
0.0,-0.7991243624999997,Dy2Ga4Pd2,mp-1092296
0.0,-0.358680764722223,Eu2In8Ir2,mp-1095333
0.0,-0.4505182541666664,Ce4Mg4Sn4,mp-1095568
0.0,-0.9003340449999998,Tm4Al4Pd4,mp-1095667
0.0,-2.7487885708064517,Sr7Nb34O52,mp-1101427
0.0,-0.4179846354166668,Pr3Al6Ag3,mp-1101762
0.0,-0.5182339019444449,Lu2Ni8B2,mp-1101842
0.0,-0.9218000016666661,Ca4Sn4Pt4,mp-1102040
0.0,-0.42173953060606095,Ce2In8Pd1,mp-1102172
0.0,-1.053195274999999,Sc4Ga4Pt4,mp-1102184
0.0,-0.4549344985714287,Sr2Cd8Pt4,mp-1104117
0.0,-0.30372492615384555,Tb1Nb6Sn6,mp-1104137
0.0,-0.6163463485714286,Yb10Pd4,mp-1104397
0.0,-0.27955407999999965,Yb1Al8Cu4,mp-1104848
0.0,-2.1530879850859996,Sr1Mn7O12,mp-1105343
0.0,-0.8573166624999997,Pr4Ge4Pd8,mp-1105974
0.0,-0.7916616825,Lu10Ge6,mp-1105989
0.0,-0.48843505916666646,Nd3Mg3Ga3,mp-11155
0.0,-1.9313504067500002,Yb3Sn1O1,mp-11651
0.0,-0.34350204062499934,Er1Ni1C2,mp-11723
1.6085,-0.9660490668924315,Cs4Sr1Sn3Se9,mp-1181839
0.0,-0.29719568875000046,Cd1Pd2Au1,mp-1183633
0.0,-0.26146818874999944,Dy1Er1Cu2,mp-1183862
0.0,-0.7527303425000014,Gd1Dy1Ir2,mp-1184518