band_gap,formation_energy_per_atom,full_formula,task_id
2.5696000000000003,-1.3160688693122922,Zr2Hg6Se4Cl12,mp-570520
2.4877,-1.0139065980039688,P16N12Cl44,mp-570583
2.0148,-0.9276678553333332,Zr6I24,mp-571235
4.939,-2.6015375335566877,Cs6P14Pb4O42,mp-572271
3.4526,-3.0177578166483507,Gd8P24O72,mp-579125
3.2271,-2.7524051592385046,Cs12Si24Sb12O84,mp-581955
2.569,-0.8039165133038461,Al4C12N12Cl24,mp-607454
0.3365999999999998,-2.6367574343681315,Ca6Cu6P8O32,mp-6118
0.9831000000000004,-0.44160502027606735,Cs24Al8P16,mp-619651
2.0074000000000005,-1.3808477042241374,Pb26Br12O20,mp-622491
4.0328,-1.9273326462980775,Sb8S8O36,mp-638424
1.4719,-0.548779968473939,Yb4Mg4Fe3H22,mp-643071
0.11129999999999997,-0.4247200624133324,Eu1Mg2H6,mp-643738
0.4645999999999999,-1.4607202400053876,Rb4Eu4As4S12,mp-646129
0.9255,-1.527841912010869,Lu4Ta24Br52O12,mp-662606
0.7065999999999999,-3.0428879921599994,Eu10Si2Cl12O8,mp-669318
2.8434,-1.1572834318660723,Mg2P2S6,mp-675651
1.6878,-1.2412845229960725,Nb8P16S16Cl40,mp-679987
0.15420000000000034,-3.1526019797727285,Gd24Ru8O56,mp-683963
1.5760999999999998,-1.8601741960416671,Ba2S4,mp-684
1.0292,-2.474934092749999,Ba4Na1Cu1C2O10,mp-6841
2.5046,-1.4535173378833337,K4Na2H20I2O20,mp-695963
0.9623,-0.4300575561379304,Rb4Si2As4,mp-6960
2.2979,-2.8706085259172927,K8Ti6Ni2P12O48,mp-698691
2.3333,-1.8280328403883872,Na2Co5Mo4Cl4O16,mp-699543
1.7209,-2.049811618237778,K2Ag2F8,mp-7387
1.1422,-1.18496234803161,Rb4Cu4O4,mp-7470
3.3378,-1.7666548412500005,Te2S8O28,mp-752443
1.5489000000000002,-1.7444185085714299,Fe4Co2O8,mp-753222
3.5954,-3.0082652947500015,Sr6W2O12,mp-756382
3.0567,-1.7803889285753678,Al4Se6O24,mp-756970
4.1135,-2.6215067931250005,Li2Ca1Ge1O4,mp-7611
1.8220000000000005,-2.525261486468751,Y8Se8O24,mp-769404
3.9861,-3.1585207713425927,Ba8B8O20,mp-771158
3.654,-3.3178831277777787,La8W4O24,mp-774193
1.1172999999999995,-2.5033746059946225,Mn1P6W3O24,mp-776341
1.6183999999999998,-0.4646070407142854,Al2Cd1Te4,mp-7909
3.99,-3.2087285317500003,Na1Sc1O2,mp-7914
3.9610000000000003,-3.160536120125,K1Er1O2,mp-7959
0.6835999999999998,-0.5858721708571426,Ba1Cd2P2,mp-8279
4.3189,-3.9969395779758337,Ba1Ti1F6,mp-8291
1.1422,-0.3286929907857141,K4Cu2P2,mp-8446
0.6519000000000004,-2.1294032941666665,Sn2O4,mp-856
1.4199,-1.0017924427538312,Rb4Ag4O4,mp-8603
2.5844,-0.9353369366666664,Pb2Br4,mp-862868
2.875,-0.7075462307466669,Yb4H8,mp-864603
1.4266,-0.5193347492996114,Cs4Ag4P4Se12,mp-865980
0.0015999999999998238,-0.6263599241071427,Ca2P6,mp-9122
0.3693,-1.0507367906249998,Cd1Hg1O2,mp-9146
0.7601,-0.9428940474635419,K6Se6,mp-9268
1.6,-1.4917953971428568,Sr2Au4O8,mp-9298
1.5728,-1.0986146274241078,K4P2Au2S8,mp-9509
0.3498999999999999,-0.41772204390625056,Ag6As2S8,mp-9538
1.7109,-1.2593674549166665,K2O1,mp-971
3.2012,-1.3917125896026663,Sr4Si10N16,mp-9710
2.5338,-0.5332486661749994,K2H16N6,mp-974267
3.2689000000000004,-2.1761982642241384,Rb2Tc2O8,mp-975115
4.1244,-3.0805603733333338,Hf2Ge2O8,mp-9755
0.8479000000000001,-1.8854603226562503,Ho8Se12,mp-9824
1.7477000000000005,-2.510804726250001,Ba4Lu8S16,mp-984052
0.09760000000000013,-2.3479850412813787,Cs2Pb1Cl1F6,mp-989549
0.3921000000000001,-1.5268375164285717,Ca4Ni8O16,mvc-15041
4.513,-0.6219970827330001,C16Cl64,mp-1004532
0.7060999999999993,-1.052956815,Dy1Tl1Te2,mp-1007908
1.0751999999999995,-2.0403410477645,Hf2S1N2,mp-1017567
2.0792999999999995,-1.935255707208333,K1In1O2,mp-1018031
4.4673,-3.2248766231481483,Ba8Ca8B16O40,mp-1019542
4.3865,-2.660483803801588,K4Na6P6O20,mp-1019781
5.2762,-2.1312956857208327,K8Si4S24O84,mp-1019785
1.1486999999999994,-1.1226243694250002,Na4Pt2S4,mp-10246
1.3582999999999998,-0.5664842007733336,Mg8Sb4N12,mp-1029378
2.3010000000000006,-0.36830985215555495,Ba2Ge14N20,mp-1029679
2.6524,-1.9664459101499998,Na4Ge2Te2O12,mp-10340
2.2292000000000005,-2.5342750113839294,La2Fe1Se2O2,mp-1078132
0.4005000000000001,-1.1809166052499998,Ni2Pb2O6,mp-1078668
1.1515,-0.5541193719612068,Rb2Sn1Hg1Te4,mp-1080691
1.541,-2.6865326652499997,Sr2Cr1Sb1O6,mp-1084823
5.3337,-2.631274536197379,Cs1Ca1Cl3,mp-1097916
1.0549999999999995,-1.0306354608333332,Sr4Li4As4,mp-1101989
0.7962000000000002,-3.4014067160526333,Dy5Mo2O12,mp-1105361
2.2496,-2.5447108189375003,La4Lu4S12,mp-1106374
5.1532,-2.998585250909402,Cs3In1F6,mp-1112970
0.06479999999999908,-0.4903949033333343,Si8Sb8Pt8,mp-11152
2.679,-2.402343849834103,Nd10Te14W2Cl6O46,mp-1173616
2.7019,-2.3969613168212818,Pr10Te14Mo2Cl6O46,mp-1173622
4.5459000000000005,-3.5601354006700014,Dy2Cl2O2,mp-1178362
5.0253,-1.1580117598133337,Ni4H48Cl8O48,mp-1180537
1.3001,-1.209193670338542,Dy4Ag4Se8,mp-1181462
0.15749999999999995,-1.2250736823450003e-16,Rb29,mp-1186899
2.2422,-1.6730796849999998,Sc2Br6,mp-1186984
0.2786999999999997,-0.5554076272727273,Ba4Ge10Ir8,mp-1190188
2.9510000000000005,-2.419253298125001,Y2Co1Te2S2O14,mp-1190505
2.495,-2.0312656780054543,K6Na2Mn2Cl12,mp-1191678
3.683,-2.7982624582896665,Na5Pr4Ge4O16F1,mp-1192433
0.0895999999999999,-2.4961464005357152,Eu4Dy8S16,mp-1193960
2.9570000000000003,-2.5982639580219784,Ba2Co4P4O16,mp-1194023
5.319,-0.4809973251529159,Y8B24H144N16,mp-1194951
1.199,-0.6392987570067051,Cs8Cd8In8Te24,mp-1195350
3.3467,-2.252635896293045,Ba6As8H4O28,mp-1195773
2.4251,-2.643884440821707,Na80Fe16P32O128F32,mp-1198461
0.0042999999999999705,-2.5671140065545828,Rb7Eu1Fe6P8O34,mp-1198666
5.8719,-2.603212310403665,Li12B20H8O40,mp-1199091
3.9908,-2.858938167741759,K8Sm4Mo4P4O32,mp-1199136
2.5462,-2.305538535221853,Sr4V8Te4H4O34,mp-1199642
0.08479999999999999,-1.7811457724352169,Ag12S16O48F16,mp-1201018
2.8284,-1.8487766585481813,As4Cl4O4F32,mp-1201143
0.20869999999999989,-1.0318366324107144,Eu8Ga16Se32,mp-1201775
4.6907999999999985,-2.3849213783746155,Na8Y4H4C8O28,mp-1202901
0.24770000000000006,-1.3522620396228453,Ga4Cu6Se12O36,mp-1203611
3.2789,-1.5594848633376914,Tm4N12O36,mp-1203703
7.1053,-3.9091335221655177,Ba4Na4Sr2Al8F40,mp-1204071
0.40269999999999984,-0.96571985415625,Sr16Sb16Se48,mp-1204655
5.337700000000001,-2.590826259536184,K12Er4S12O48,mp-1205074
0.3982,-1.3160890710535431,Re8P12N8Cl60O12,mp-1205173
3.5993000000000004,-3.403443175625,Y12Sc8Ga12O48,mp-1207933
3.8994,-2.9449939797140003,Sc2Tl6F12,mp-1208995
5.1722,-3.020056054828431,Sr8B20Br4O36,mp-1209005
0.9412000000000004,-2.0747760945973788,Rb6Zr12Be2Cl30,mp-1209505
1.6130999999999998,-2.202257963945363,Rb2La2Zr12Fe2Cl36,mp-1209639
4.149,-1.3227738153333333,Na4Al4Br16,mp-1210155
3.0748000000000006,-3.5596168701961117,Lu2Ti2Cl2O6,mp-1210698
4.4913,-3.5550262351041675,Li4Sm24B12O56,mp-1211144
3.8403,-2.3295036756521736,Li8Be6As6Br2O24,mp-1211214
0.2769000000000004,-0.6184768105612248,La2Zn6P6,mp-1211229
1.4363,-1.6725833345066667,K4Pb2Cl12,mp-1211440
6.9029,-4.2402229866329995,K4Dy8F28,mp-1211771
2.6188,-2.8721631824962413,K8Zr4Fe4P12O48,mp-1211889
2.7223,-1.3860497662690476,K18Nd2P8S32,mp-1211992
3.0677,-2.516075819166666,Ho2Tl2W4O16,mp-1212131
0.3815,-1.1809042366666669,Dy4Te4As4,mp-1212803
0.9806,-1.1701610930271886,Cs2La2Nb12Br36,mp-1213403
2.6619,-2.4520309335535706,Fe4Sb4P16O56,mp-1213459
2.4989,-2.2294361346997933,Be6Ag8P6Br2O24,mp-1214242
2.4643,-3.3178529495830005,Ba4V4Cd4F28,mp-1214298
8.311399999999999,-3.54080310537303,Ca8B16F64,mp-12146
1.7207,-2.8271504906782745,Ba12Na4Ta4Mn4O34,mp-1214895
4.2057,-3.0197147591206908,Cs16Zn8Si40O96,mp-1214991
1.6447000000000005,-2.9326107178409093,Y4Fe2Sb2O14,mp-1216121
2.7024000000000004,-2.0088221762500007,V4Ge2Pb10O24,mp-1217012
1.3002000000000002,-0.4506121828593755,Te4Pb5Se1,mp-1217406
2.2965,-2.89106957684874,Ta3Sb1P6O24,mp-1218132
0.09030000000000003,-2.525493028095238,Sr6Zn1Ru2O12,mp-1218524
0.05900000000000016,-0.5013113600000002,Sn4Te4Pt4,mp-1218898
0.4607000000000001,-2.0470199297753333,Mn4In2Sb2O12,mp-1222032
1.7108,-2.2646437219044446,Li2Ni2Rh2F12,mp-1222366
6.9506,-3.3494499031108327,Na4Li2Be4F14,mp-12240
3.6849,-3.1586020657500007,Ba2Zr1Sn1O6,mp-1228067
0.23950000000000005,-0.4224487410416668,Ca43Al16Pb13,mp-1228746
1.5138000000000005,-1.1912929186309529,Mg4In8S16,mp-1232207
3.0033,-3.6274753923125016,Tb2S1O2,mp-12668
0.4017000000000008,-0.5166142400000003,Zr2Ge2Te8,mp-13542
2.3032,-2.4360997605000003,Sc8Cd12Ge12O48,mp-13771
2.2672,-1.9676370792857143,Li8Te4O16,mp-13843
1.7832,-1.9700286852675,Cd1Pd1F6,mp-13984
1.7419999999999998,-1.7573192873214285,Sb4As4O20,mp-14368
5.2445,-2.7103571324826543,Na12Al4P32O92,mp-14389
3.4604,-2.628334763211249,Na2Al2As2O8F2,mp-14395
0.8793000000000002,-2.4431049445238093,Tl4Mo8P12O48,mp-14498
0.2617999999999998,-0.3473644225000001,K10Cu2As4,mp-14623
0.5159,-1.2328452515520836,K36Fe8S28,mp-14889
1.0679000000000003,-1.0691988933597882,Ba32Ti8P32,mp-15502
3.0711,-1.1210088160416671,Si2S4,mp-1602
1.2818999999999998,-0.23087161258996244,Tl4B4Se14,mp-16183
0.0032999999999998586,-0.4981766972222219,Ca3Cd3Ge3,mp-16258
3.0346,-1.5170329066839998,Sm6Si12N22,mp-16995
4.2975,-2.971441506663266,K9Sc3P6O24,mp-17035
1.905,-1.175465981057778,Sr12Al8N16,mp-17129
4.6289,-3.3795196767857143,Ba8Si4O16,mp-17612
3.9702,-2.326647154308035,Li2Ni4P6O20,mp-17664
7.1568,-4.013201012543333,K4Sm4F16,mp-17697
0.2070000000000003,-2.9430302130882358,Yb4Be4Si4Ni2O20,mp-18715
1.8208,-1.894593470421724,Cs4Li2Mn2O8,mp-18722
3.9215,-3.3464703869117653,Y4Be4Fe2Si4O20,mp-18959
1.9243,-2.64037256975,Ca4Co2W2O12,mp-19161
3.122,-3.2458138945833337,La2V2O8,mp-19162
2.5035000000000003,-2.239922656590909,Sr6Ni2Pt2O12,mp-19166
2.2452,-3.08158553375,Ba1Dy2Ni1O5,mp-19416
0.033199999999999896,-0.8065727107142858,Eu2Sn2P2,mp-19794
0.2966000000000002,-0.6801797549999998,Sr4Ca4Sn4,mp-20726
0.9339000000000012,-0.6198786532812495,Si40Ir24,mp-2084
1.5080000000000005,-2.916282699145408,Ca4V8P8O36,mp-21541
0.8709999999999996,-3.1414877875000005,Ta4V2O12,mp-21860
2.7015,-2.518823293068181,Pr4Fe4Ge8O28,mp-22208
1.9867,-1.6763761218865747,Ba16In16S40,mp-22841
4.0899,-1.5737032622499998,Na1Br1,mp-22916
1.0776,-1.6705155147844444,K2Re1Cl6,mp-22947
2.6807,-0.5331657324877774,Ag1Cl1O4,mp-22993
1.9324,-0.7472810656635718,Hg6S4Cl4,mp-23418
3.6745,-1.4264716944285714,K4Zn2Br8,mp-23535
3.4610000000000003,-1.5099546758653841,Er4I12O36,mp-23552
5.9622,-1.1768536938416665,H8N2F2,mp-23794
5.1581,-1.6161814707879472,Rb4P4H8O8,mp-24212
2.8483,-0.30318867457199944,Na4Li2Al2H12,mp-24413
0.0034000000000000696,-0.05818606250000021,Tb3Fe9,mp-2584
1.2038,-1.1870628322857142,K2Pd1Br4,mp-27138
0.8069000000000001,-0.1576146131249998,Au8Br24,mp-27213
1.3462,-0.6985685099449999,Au4Cl12,mp-27647
1.4523,-1.004295931397143,Cd12As4Cl12,mp-27899
2.8361,-1.7258251010357142,Na12Bi4O12,mp-27914
2.0711,-0.08223653631696475,P16Se12I8,mp-28089
3.3733000000000004,-1.9348281651171868,Ba4Se8O20,mp-28536
3.616,-2.5659931081300007,Na6Be8O11,mp-28559
2.7941000000000003,-2.1887093912999998,Na16Be8O16,mp-28588
2.8002,-1.5949364924264708,Bi8Te16O44,mp-28990
0.15869999999999962,-0.475213323571429,Nb8Ge4Te16,mp-29073
0.7460999999999998,-1.94700121198718,Ba9Ta6S24,mp-29354
0.036100000000000236,-0.3989691050000001,Sr52Mg8Si80,mp-29546
2.3443,-1.0782484259479166,K8Te4S12,mp-29692
4.4588,-2.4352644997785715,Tl4Te4F20,mp-29903
0.2074999999999996,-0.6706112583333331,Y1Ni1Bi1,mp-30460
1.5034999999999998,-2.018062277083334,V4Te4O16,mp-30525
4.128,-1.3010839758000003,K4Al8Br28,mp-30978
0.2570999999999999,-0.528399725812808,Rb2Te5,mp-31002
3.2641,-3.3550082835833326,Ca16Nb8O36,mp-31016
2.8871,-3.4675302143124997,Pr2S1O2,mp-3236
0.21830000000000016,-2.22596278022,K1W6O18,mp-34278
2.145,-1.1027748727417244,Cs2Ta2N4,mp-34293
0.9263000000000003,-0.9235025229166663,Tb2Ag2Te4,mp-3551
2.8473,-0.8159190307019998,Li10Re2N8,mp-3838
0.20330000000000048,-0.28283339374999983,Ga2Cu2Te4,mp-3839
0.8642,-1.3886575563750003,K2Cu2O4,mp-3982
1.4545,-0.7939912933833336,K8Sn6Se16,mp-4971
1.6937000000000006,-1.14396975328125,Al2Cu2S4,mp-4979
2.0254000000000003,-0.9928668523214296,Si4Pb8S16,mp-504564
1.7444999999999995,-2.4177111398229814,Na2Mo6P6O32,mp-505102
0.30410000000000004,-1.0549868604635415,Na4Zr4Cu4Se12,mp-505172
3.8773,-2.4604893630172415,Cs1Al1Mo2O8,mp-505784
2.0800000000000005,-1.999170711785714,Li4Fe4As4O16,mp-510641
4.461,-3.8016529917187514,La8Si4O20,mp-5152
4.2856000000000005,-3.2135698327460327,K2Zr4P6O24,mp-540577
1.1265,-1.5154958897916664,Tl8Sn4O12,mp-540586
0.8277000000000005,-0.8271358480555556,Ca12Si8As16,mp-540696
1.44,-1.4226000586551322,S6N4O28,mp-540798
5.7568,-3.5403808365642857,Ba4Ga4F20,mp-541629
1.1676,-0.9083594355694444,Na14In6Se16,mp-541689
3.8754,-2.6187226647495234,Mn4P8O24,mp-542139
0.002400000000000624,-0.09095976250000017,Mn23C6,mp-542830
1.8062,-1.8702008570746744,Sb3As2S14I3F24,mp-554195
1.2752000000000003,-2.0794132979207154,Pr24S16Br4N12,mp-554459
4.336799999999998,-3.300866661190477,Ca4Zr4P8O32,mp-554495
2.2999,-2.594102590088148,Ba10Re6N2O36,mp-555095
3.612,-3.3591657658333327,Lu8W4O24,mp-555747
2.7133,-1.358745909250001,K32Ge8S32,mp-556627
4.3828,-3.2372109817499983,Na4Ca6Si6O20,mp-556679
3.8681,-3.1408393891042854,Ca10V6O24F2,mp-556759
1.2212000000000005,-0.3500310528993058,Ag4Hg2S2I4,mp-556866
1.4277,-1.177707808127695,Rb1Au1Se2O8,mp-557122
3.513,-2.3047555960208337,K8Ca4As8O28,mp-557367
1.0244999999999995,-1.478117659166666,Bi4O8,mp-557993
3.0314,-2.1311683047916667,K4Na4Ge4O12,mp-558085
2.253,-1.0645845141040384,Al2As6S10Cl8,mp-558360
3.1876,-1.9140309185,Ga8Te8Mo4O40,mp-558386
2.8453,-2.769910290475833,Fe3F9,mp-558852
4.5652,-3.6552140291614283,Y12Si8Cl4O32,mp-558883
3.0598,-1.683901992516666,Gd2H12C8N2O18,mp-559223
3.7797,-3.2140225277604166,Zr4B8O20,mp-559571
2.7049,-1.4908536856666668,K4V4I8O32,mp-559744
5.3424,-2.80934891561384,Ca4P16O44,mp-559985
2.5332000000000003,-1.9297903866666672,Fe2Bi6Mo4O24,mp-560123
0.5956999999999999,-1.689756005491177,K4Ru2Cl10O1,mp-560515
2.6564,-2.945117750953703,K16Nb24O68,mp-560692
2.0749000000000004,-2.5960298295089292,Ca2Fe6P6O26,mp-560784
3.6856,-2.588652630020834,Na4Zr2Ge4O14,mp-561166
1.5519999999999998,-0.969840478166308,Cs4Ag2As2S8,mp-561622
4.0193,-2.487541844952,Te4F16,mp-561664
2.1165,-3.0809425869166662,Ca12Nb8Co4O36,mp-561965
3.1046000000000005,-1.786999423910098,Cs12Sb4O12,mp-562072
1.3618,-1.5095858536413038,Na20Co8O18,mp-562435
1.5853000000000002,-1.4669807648046873,La6Si2Cu2Se14,mp-568082
1.1427,-0.836400313351293,Cs12Au8Br44,mp-569984
1.9517,-0.8566273593848216,K4La4P8Se24,mp-571662
1.8734,-2.450936752452664,Cs4Mo8P8O44,mp-572395
3.0056,-2.7188056525499333,Cs14Co8F30,mp-573016
1.6303,-0.39557152911206894,Cs24As56,mp-573631
0.8332000000000002,-1.514770118089979,Rb2Gd4Cu2Se8,mp-574448
1.9003,-1.093401222447917,Al2Ag2S4,mp-5782
0.4354,-0.6491303489508928,Nb28S8I76,mp-583476
5.3234,-3.2893309823275865,Be6Al4Si12O36,mp-6030
2.9882,-3.014616966601852,Na4Ti2Si2O10,mp-6138
2.7395,-2.0938428975000014,Tl4V8Sb4O32,mp-622278
6.8529,-3.3753788168228573,K2Li2Be2F8,mp-6253
0.01849999999999996,-1.4189800188163637,Ba2H8O12,mp-625888
3.839,-2.9961361721550004,La2H2O4,mp-626724
2.7968,-2.079947213012381,V6Pb10Cl2O24,mp-628782
3.7446,-2.6032085996244607,Na4In4P8O28,mp-6290
0.1863999999999999,-0.2814772709051723,Cs3Bi1,mp-635413
1.3899,-0.4799492990813577,Cs8As16Se24,mp-645172
4.1971,-3.1900254822738114,Na2Zr4P6O24,mp-6475
3.0134,-3.054851631300544,Rb8Ti8P8O40,mp-6539
1.5392,-1.4906067423437497,Pb32O32,mp-672237
0.9695,-2.707966984000001,Ta8Tl8O24,mp-676262
1.6778,-1.002150156691618,Re12S28Cl28,mp-680059
1.1350000000000002,-0.5428603616642715,Cs4Re24Se32I12,mp-680185
4.6996,-3.208426610964285,K24Al24Si24O96,mp-680374
1.5028000000000006,-2.3959890375367863,Nd8Cu2Te10Cl6O30,mp-683957
1.9535,-2.0567885643019053,V4P4H16O24,mp-695981
3.0693,-0.4284460046355554,Mg2H6Ru1,mp-697030
1.2173,-1.0522614191388893,Na4Ag4O4,mp-6983
5.208500000000001,-1.5956645241947622,P8H32N8O24,mp-706986
3.1964,-1.977348435595,Tl4F4,mp-720
2.4582,-2.7485056453530947,Na9Cr6P6O24F9,mp-720126
5.5723,-2.4124145804906663,Na4B20H16O40,mp-721294
5.3941,-1.7477913557122828,Al4H44S4O40,mp-722527
0.8395999999999999,-0.4550254067142857,K2Zn2P2,mp-7437
1.7921000000000002,-1.9724602175,Li2Fe1O2,mp-755094
2.638,-1.1661325059827596,Cs2Ni1O2,mp-755100
3.0567,-1.028727469915,Sc4H24Br12N8,mp-759651
2.1651,-2.124847901166666,Na4V2As2C2O14,mp-771012
1.8466,-2.3832854194957984,Fe1Sb3P6O24,mp-774425
1.0421,-2.027280237142857,Li2Fe2Sb2O8,mp-774920
1.247,-1.2331515572500005,K4Cu4O4,mp-7911
2.2341,-2.501669569109387,Rb6Pd2F10,mp-8201
0.2549000000000001,-1.0979415217500006,Cd1Pt3O6,mp-8212
1.2348,-2.0562304051785723,Lu4Cd2S8,mp-8269
1.5699,-2.139355565076389,Na8V4C8S2O32,mp-850995
0.03840000000000021,-0.4090677607142865,Ca1B6,mp-865
1.0750000000000002,-1.8189973630769232,Ca2Pt3O8,mp-8710
1.6773000000000002,-0.3962211583253972,K6B2P4,mp-9664
0.8053999999999999,-0.5008603642499997,K4Na2Ga2As4,mp-9676
3.2633,-0.4911391793542858,K4H8Pt2,mp-974713
3.4749,-2.7307804299553786,Cs2Li1Tl1F6,mp-989562
1.8386000000000005,-1.1126804124279983,Y4Mo4N12,mp-989604
2.1968,-1.2209837499279983,Y4W4N12,mp-989615
1.1646999999999998,-0.586337314047619,Li2Be2P2,mp-9915
1.4726,-1.1485229721767245,Cs2Au2O4,mp-997024
1.2328000000000006,-1.3721289405468755,Pr1Tl1Se2,mp-999289
0.5688,-1.9230153699999997,Ca2Co3O8,mvc-15986
4.2518,-2.6677722622280697,K12Zn4B20O40,mp-1019786
5.0787,-2.7036509906799155,Na8Mg8P12N4O36,mp-1020147
2.6872,-2.955759332678572,Ba16Nb4Fe4O32,mp-1022809
0.6339000000000001,-0.12366692315624946,As4Se6,mp-1078443
0.4421999999999997,-0.8673801950000002,Ba4Zn2Sb4,mp-1079149
1.2736999999999998,-1.891519396875,Sc2Al2C2O2,mp-1080747
1.4608,0.0,O8,mp-1091399
0.3048,-1.1520257623750003,K2Pd4O6,mp-1095520
0.4898,-1.5773016857088125,Rb16Fe4O16,mp-1101414
0.10690000000000044,-2.02638737825,Y1Cr4Cu3O12,mp-1105560
1.3799,-0.6542251873571431,Ba4Ga8P8,mp-1105728
0.3803000000000005,-1.2606643192500002,Er7Ir1I12,mp-1105808
1.5950000000000002,-2.4022390442500003,Ca2Fe2Ge4O12,mp-1106019
3.7427,-1.878996243506,K2Na1Bi1Cl6,mp-1111239
3.6182,-1.887706663056,K2Li1Bi1Cl6,mp-1111261
1.8075,-2.4147815063139997,K2Tl1Rh1F6,mp-1111571
1.939,-2.425583781064,Na3Ir1F6,mp-1111890
2.1234,-2.581738719764,K2Na1Ir1F6,mp-1111919
6.7384,-3.5422301451553797,Cs2Na1Nd1F6,mp-1111954
6.6204,-3.5341982599053794,Cs2Na1Pr1F6,mp-1111970
3.9065,-2.421244185147379,Cs2Na1Sc1Cl6,mp-1111988
4.9938,-2.4673247833973795,Cs2Na1Nd1Cl6,mp-1112006
5.3362,-2.4900211126473795,Cs2Na1Lu1Cl6,mp-1112008
4.9619,-2.4625228031473787,Cs2Na1Pr1Cl6,mp-1112143
0.9383,-1.5984781080560004,K2Cu1Bi1Cl6,mp-1112238
0.4234,-2.360669192980667,K2Tl1Ag1F6,mp-1112444
3.0265,-3.2181255884806674,K2Sc1Ag1F6,mp-1112447
2.235,-2.7306813059806663,K2Ga1Ag1F6,mp-1112467
1.8139,-1.616419031722667,K2Ag1Bi1Cl6,mp-1112476
5.1832,-3.3934822004553795,Cs2Sc1Tl1F6,mp-1112485
1.7532,-2.4636248439553787,Cs2Tl1Rh1F6,mp-1112487
5.1941,-2.480288056697379,Cs2Li1Er1Cl6,mp-1112613
0.7900999999999999,-1.2342503929080462,Cs2In2Br6,mp-1112642
2.4656,-1.2404171061913791,Cs2Na1As1Br6,mp-1112664
4.0508,-1.83843867524138,Cs2Li1Y1Br6,mp-1112666
3.9721,-1.8285681617413796,Cs2Li1Pr1Br6,mp-1112675
0.8267000000000002,-0.8098533255555557,Ba6Si4As8,mp-11692
2.9287,-2.9368545953017247,Cs2La2O4,mp-1178449
0.4990000000000001,-0.022272193699999814,Ca1Mg149,mp-1184449
0.04259999999999975,-0.010711685857466478,Mg149H1,mp-1185556
3.8129,-1.6272773077413791,Cs4Yb4I12,mp-1185576
0.04649999999999999,-0.17371749999999953,Nd12Ni4,mp-1188200
0.17610000000000034,-0.6794803583399993,Sm6H18,mp-1192065
1.2603,-1.3643925820535716,Ba8Sn4Se16,mp-1192595
3.8882,-3.3799270059166675,Ba8Ta4O18,mp-1192906
2.7695000000000003,-1.4185305273661537,Bi8Te4I4Cl4O32,mp-1194678
3.5155000000000003,-1.5203274040474068,Ca12B4I12N8,mp-1195197
2.717,-2.2637721950790226,Ba4Ti4S24O84,mp-1198551
2.5264,-0.8371292686641673,B100S150,mp-1199451
0.9272,-1.0437768703895842,K8Gd8Sb8Se36,mp-1199482
2.9394000000000005,-2.045507393705357,P4Pb8I4O16,mp-1200124
7.1404000000000005,-4.066975602992857,Sr32Al32F160,mp-1200608
1.0785,-0.7066517140752353,Cs16Ge4Te24,mp-1200610
0.08760000000000012,-0.3210922956338026,Tb26Zn116,mp-1201388
3.3267,-3.4507165314984207,Na12Sr16Cr20F104,mp-1201930
3.0994,-1.6714816694107495,Mn8Se8O24,mp-1202364
1.0820000000000007,-2.314694560664063,Sm8Hf4S20,mp-1202520