band_gap,formation_energy_per_atom,full_formula,task_id
0.0,-0.7246111267369227,La4H9,mp-1103808
0.0,-0.6865226050000004,Eu10Pt4,mp-1104413
0.0,-0.4573894678571432,Ba2Cd8Pt4,mp-1104609
0.0,-0.5029375478571423,Ca10Pd4,mp-1104669
1.3155999999999999,-0.2720684621242861,Li2Ca4H2C6,mp-1104693
0.0,-0.619213131363636,Sc3Cu4Si4,mp-1104960
0.0,-0.7389311687499998,Er10Ge6C2,mp-1105712
0.0,-0.4859169722222229,Hf10Cu2Sb6,mp-1105851
0.0,-0.1082616733333334,Mn1Au2,mp-11252
0.0,-1.0734562874999998,Sm2Pt4,mp-1127
0.0,-0.04548812500000091,Y1Fe5,mp-11385
0.0,-1.4718639907812503,Ba2Cu2S4,mp-1147715
0.0,-0.7267535233333339,Yb2Cu2Sb2,mp-11701
2.7492000000000005,-3.9147513165948276,Sm2Zr8O19,mp-1173100
0.0,-0.8900915138888897,Tm10Si4Sb4,mp-11749
0.0,-0.8178882606249998,Ca1Nd1Au2,mp-1183564
0.0,-0.5201574112499998,Ca1Tm1Hg2,mp-1183581
0.0,-0.25818433500000104,Eu2Mg1Tl1,mp-1183884
0.0,-0.3760794791666662,Ce1Tm1In2,mp-1184197
0.0,-0.3027648633333339,Ho12Ga2Co4,mp-11844
0.0,-0.6226681175,Hf2Tc1Pd1,mp-1184594
0.0,-0.36914572312499994,La1Er1Tl2,mp-1185012
0.0,-0.3773851606249998,La1Ho1Tl2,mp-1185020
0.2667999999999999,-0.024617428266666554,Mg149Sb1,mp-1185628
0.0,-0.03726060624999983,Mg3Sc1,mp-1185790
0.0,-0.21497000375000042,Pm2Cu1Ni1,mp-1186454
0.0,-0.5565399212499997,Pm1Nd1Ga2,mp-1186611
0.0,-0.1702735987500006,Zn1Ga1Co2,mp-1187911
0.0,-0.8446492212500001,Pr4Ga4Pd8,mp-1188119
2.0516,-2.1327146009374998,Y6Ga2S12,mp-1189598
0.0,-0.44812021796296303,Ta10Ge6B2,mp-1189895
0.0,-0.5857060906818177,Sm6Si4Ni12,mp-1191578
0.0,-0.4168857813636361,Hf6V4Ga12,mp-1191713
0.0,-0.6082900444444448,Gd4B16Ru4,mp-1192291
0.0,-0.7634332674999992,Y4Ge8Rh16,mp-1192507
0.0,-0.677173427482856,Ta16Ni8N4,mp-1192944
0.0,-0.6679687407142845,La4Sn16Rh8,mp-1193123
1.8686000000000003,-1.0935416989608993,Cs8S20,mp-1193140
0.0,-0.6146510507142864,Ce4Sn16Rh8,mp-1193462
5.809799999999999,-1.9872025236966273,B4P4H16N4O16F4,mp-1195775
0.42689999999999984,-2.3778327707608433,Rb4Cu6P8O24F8,mp-1196467
0.0,-0.7418238045714279,Y42Rh28,mp-1196999
0.0,-0.09957132807692332,Ga16Cu36,mp-1197621
0.0,-0.4407155847500007,Gd6Ge26Ru8,mp-1197955
0.0,-0.6902928230952382,Y22In12Ge8,mp-1200167
0.0,-0.773913873947369,Er10Ge20Rh8,mp-1200777
2.1559999999999997,-1.5645647605357138,Te4Pb20O32,mp-1201764
0.0,-0.4424315767500005,Tm2Re4Si2C2,mp-1205618
0.0,-0.43546250624999916,Nd2Re4Si2C2,mp-1205793
0.0,-0.828682611,Lu4Cd2Pd4,mp-1205869
0.0,-0.2782916811111112,Tm3Mg3Tl3,mp-1206000
0.0,-0.64090872,Sm4Bi2,mp-1206229
0.0,-1.143197199166666,La2Si2I2,mp-1206265
0.0,-0.37855366866666673,Ce1Ag2Ge2,mp-12063
0.0,-0.9582177018571428,Pr1P2Pd2,mp-1206418
0.0,-0.8859058690909084,Lu7Te2Rh2,mp-1206471
0.0,-0.2517071713793106,Zr6Be15Cu8,mp-1207422
0.0,-0.5082007787500009,Y12Rh4,mp-1207780
0.0,-0.6201183562499999,Y16Cd4Pt4,mp-1207813
0.0,-0.7571704091666666,Tm4Zn4Rh4,mp-1207955
6.3511,-3.491106103571111,Sr2Li2Ga2F12,mp-1208619
0.0,-0.7198837832142857,Sm4Ga18Rh6,mp-1208948
0.0035000000000007248,-0.8232412913333335,Sc4Ga2B4Ir10,mp-1208983
3.3956,-2.6767638762787356,Rb2Tb2W4O16,mp-1209144
0.0,-1.017908036666667,Pr4Ni4As4,mp-1209365
0.0,-0.909525981249999,Pr3B3Pt6,mp-1209526
0.0,-0.15208967374999993,Pr16Mg4Ni4,mp-1209708
4.733499999999999,-2.5145225662566664,Na2Tb2Cl8,mp-1209961
0.0,-0.13471604430555514,Pr2In4Cu18,mp-1210043
4.6625,-2.5410222402000002,Na2Sm2C4O12,mp-1210126
1.5230000000000001,-0.9584367618160712,Na2Cr2P4S12,mp-1210128
0.0,-0.5367511346428577,Nd4Ga18Ru6,mp-1210189
1.7711999999999999,-1.7710927060312507,Na4Zr2S6,mp-1210267
0.0,-0.42552262,Lu10Cu2Pb6,mp-1210658
3.9105,-2.781095562794117,Lu8Mo12O48,mp-1211136
0.0,-2.6841166397500005,La4Co2Ru2O12,mp-1211319
1.5235999999999998,-0.45513944416666696,K20Ta4Tl8As16,mp-1211936
0.0,-2.9023577081266665,K2Cr1F6,mp-1211950
3.1064999999999996,-0.9925371152653847,K12Si24H24N44,mp-1212001
0.0,-0.7338094413054191,Ho3P6Pd20,mp-1212386
0.0,-0.9184663794444445,Dy10Si4Sb4,mp-1212829
3.1041000000000007,-2.639563115517241,Cs2Gd2W4O16,mp-1213254
0.0,-0.7596777945054947,Eu4Ni14P8,mp-1213320
0.0,-0.3064102294339621,Er12Al86V8,mp-1213427
4.6385,-3.485583197410715,Ba2Zr2Si6O18,mp-1214228
3.6336999999999997,-2.7009692805032484,Ba2Ni2P4O14,mp-1214404
0.0,-2.4045981578571434,Ba8Yb8Cu4Pt4O32,mp-1214697
0.0,-2.631267968639999,Sr4Mn1Ru1O8,mp-1218516
2.7488000000000006,-2.8812875591369047,Sm2Ti2Nb2Bi4O18,mp-1219101
0.0,-0.37812756788461527,Sm1Al9Fe3,mp-1219228
0.0,-0.6833688263636372,Sc4Co3Sb4,mp-1219380
1.2873999999999999,-1.8768694144293474,Pr6Ge3S14,mp-1219880
1.2899000000000003,-1.875864524646739,Nd6Ge3S14,mp-1220256
0.0,-0.6318723291538461,Nd14Au51,mp-1220890
1.8362999999999996,-2.0275052138571437,Na4Fe4Sn4O16,mp-1221058
4.5958000000000006,-3.1878619169899998,Na6Y2Si12O30,mp-1221246
0.8794,-0.48947200071428537,Li2Zn1Cd1P2,mp-1222618
0.0,-0.15271002919642843,La1Ce1Be26,mp-1222939
0.0,-1.1509841251282056,La4B4I5,mp-1223076
3.3298000000000005,-3.002929143250001,Er12Ga20O48,mp-12236
0.13699999999999957,-0.296086713333333,In5Cu1Te8,mp-1224528
0.9238999999999997,-0.32719337735294163,In12Te20Pb2,mp-1224649
0.0,-1.7214029841333334,K3Nb24Cl60,mp-1224709
0.0,-0.17065073023809502,Ho12Cd72,mp-1225485
0.0,-0.5655621377777772,Dy6Ga15Ni15,mp-1226188
0.0,-0.23335393499999965,Ce1Ga1Cu4,mp-1226702
0.0,-2.0349941881111118,Ba6Nd2Y1Cu12O24,mp-1228347
4.002599999999999,-2.7706992443668828,Ba3Fe4P8Pb1O28,mp-1228512
0.0,-0.09747341111111041,Al4Ge2W3,mp-1228701
0.0,-2.130902092825977,Cs2Os1Br1Cl1F4,mp-1229109
0.0,-1.16936449975,Na4Cr8S16,mp-1238825
0.0,-0.11986678583333266,Hf2Ag2,mp-13156
0.0,-0.21685967444444446,Y3Mg3Cu3,mp-13171
4.570600000000001,-3.3555569775637752,Pr12Ge4P4O36,mp-14328
1.1018,-1.061521430714286,Ba4Si2Te8,mp-14448
0.0,-2.0016089978571423,Y2Pd4O8,mp-15053
0.0,-0.7991121420000006,Tb4Si10Ni6,mp-15204
0.0,-0.7154619522222221,Li3Ho3Ge3,mp-15820
0.0,-0.8584745649999993,Tb20Ge16,mp-1673
0.9958999999999998,-1.4992425639375007,Zr4Sn4S12,mp-17324
0.0,-0.8299029599999999,Hf6Ge6Pd6,mp-17746
3.5517,-1.8129225239776783,K6Na2Se4O16,mp-17839
0.0,-0.6214449912500003,Li8Tm8Sn8,mp-18189
0.0,-0.3731990112499979,Si2Ir6,mp-1841
1.1648000000000003,-0.3786817389810828,Rb4Ag4Se16,mp-18585
0.0,-2.3376917780000004,K16Si4O16,mp-18700
3.0265,-3.232215054166666,Ho2V2O8,mp-18734
0.0,-0.6294309431249996,Ca10Ge6,mp-1884
1.5713,-3.322038955250001,Er4V4O12,mp-19205
4.450699999999999,-2.2539365336699504,Rb4Mo2O8,mp-19212
0.0,-0.5583962533333333,Ce3Mg3Pd3,mp-19731
0.0,-0.4114277656666673,Mn2B4W4,mp-19789
0.13160000000000016,-1.9692754186899997,Er1N1,mp-19830
0.0,-1.0237694977777778,Hf1B2,mp-1994
0.0,0.0,Pd1,mp-2
0.0,-2.578256351250001,Pr4Co4O12,mp-20090
0.062300000000000466,-1.0686518966666665,Ho4Si4Rh4,mp-20675
0.0,-0.7110081319999999,Ca4Pb2Au4,mp-20723
0.10989999999999966,-0.32940526312499996,Tl8Te6Pb2,mp-20740
0.0,-0.2864417999999998,Sn2Ir1,mp-2083
0.0,-0.3148832568749995,V10Ge6,mp-20916
0.0,-0.42375265916666693,Yb2In4Ni2,mp-21223
0.0,-0.3044133007291663,Mn4Se8,mp-21321
0.0,-0.8435255640476195,Ta4Fe4P4,mp-21336
0.0,-0.9951300040000006,Eu1Si2Rh2,mp-21383
0.0,-0.18062086637931038,Mg6Si7Cu16,mp-21612
0.0,-0.7381337291666661,Lu4Ge4Ru4,mp-22051
1.1743000000000001,-0.6924421621695402,Rb2In2Te4,mp-22255
0.0,-0.6494780594117645,Mg4As6Rh7,mp-22326
0.13089999999999957,-1.7700888141785722,K2Ce2Si2S8,mp-22809
4.8393,-2.217215931802414,Rb1Cl1,mp-23295
0.9487000000000001,-0.35247770277777746,Hg24Sb20Br28,mp-23453
3.5225000000000004,-1.5897585409789219,Ag4H20S8O36,mp-24072
0.0,-0.20055218953999918,Ta2H1,mp-24082
0.0,-0.02620648430999939,H1Rh1,mp-24722
0.0,-1.68665655619,Ce1N1,mp-2493
0.0,-0.1257543714285713,Ti3Cu4,mp-2643
2.6172,-2.5455108165606037,Rb1Bi1F6,mp-27421
0.0,-0.11684652650000019,Os8Br32,mp-28301
0.8912999999999998,-1.7816991270540001,Sc2C1Cl2,mp-28479
0.015200000000000102,-0.01124917874999909,Re6Ge14,mp-29141
7.363700000000001,-2.2615188035775002,K2H6F8,mp-29331
2.7520000000000002,-1.3818094079166667,Tl8Te8O20,mp-29690
1.8334000000000001,-1.966304907528735,Rb1Cr3O8,mp-30547
0.0,-0.5106675097916673,Zr6Ti4Ga6,mp-30676
0.0,-0.16799812749999887,Li1Ir3,mp-30738
0.0,-0.8319258295833327,Sc1In1Pd2,mp-31339
0.0,-0.8522050977777782,Zr5Te4,mp-350
0.0,-0.5346119513888888,Nd2Si2Ag2,mp-37949
1.3646999999999996,-2.592491641931819,Sr4Sb4O14,mp-4103
0.0,-0.6540116131250002,Nd2Fe2Si4,mp-4196
3.3701999999999996,-2.116684023281251,Ca4Te8O20,mp-5040
0.9556,-1.801740538717273,Ni4Hg4O2F12,mp-504704
0.0,-0.4735204969999998,Er1Cu2Ge2,mp-5083
0.0,-0.059044068039216815,Nd8Fe56B4,mp-5182
5.9087,-2.8036373765104172,Sr4S4O16,mp-5285
0.0,-2.989369386477274,Pr6Ir2O14,mp-5322
0.0,-0.7385679478710934,Ta4Ni2Se10,mp-541070
0.0,-1.5241365732833334,Pt8F40,mp-541341
0.0,-2.54725820575,Ba2Yb1Bi1O6,mp-545436
3.5770000000000004,-2.440296392152,Ca2Bi2Cl2O4,mp-553025
1.6738999999999997,-1.9351795925781257,Sm6Cu2Si2S14,mp-554097
5.8838,-2.691938076122485,Rb2Lu2S4O16,mp-554774
2.9519,-2.4920853567077175,Cs1Sb1P2O8,mp-554822
3.9365000000000006,-2.9204526771153847,Ba4Al8Ge8O32,mp-556178
0.0,-2.92718103883931,Cs2Cr1F6,mp-557324
2.9539999999999997,-3.3171614225,Sr16Nb4Al4O32,mp-558114
7.4039,-3.9218933744599997,K2Ho2Be2F12,mp-558826
0.4828000000000001,-2.4253752684784478,Na18V28O70,mp-560778
3.6727,-2.4527727373888886,K24Li8Si8O32,mp-561474
0.0,-1.4821291322815793,K8Cu8Cl20O2,mp-561512
0.0,-2.7418540342045463,Eu6Os2O14,mp-561983
1.8593000000000002,-1.5016574424827585,Cs8Pb4O8,mp-562263
0.0,-0.5963809699999999,Sr2Bi4Pd4,mp-567114
0.0,-0.43642656149999937,Nd1Al2Ga2,mp-567317
0.0,-0.30974024023809626,Ti8Co2Bi4,mp-567883
0.0,-0.47616245303571453,La2Co18Si8,mp-568056
0.0,-1.39451276388,K8La12Os2I28,mp-568357
0.0,-0.5274558587499996,Dy2Fe4Si2C2,mp-568668
3.5506,-0.9146146162499997,Tl8Ga8Br32,mp-569348
0.0,-1.1082113277777776,Ce6Si2Pt10,mp-569913
0.0,-0.26695467500000003,Ce3Pb1,mp-570018
0.0,-0.7430304922222225,Yb3In3Au3,mp-570912
0.0,-0.10038145000000043,Fe1I2,mp-571122
2.4999,-2.5173786842760935,Cs12Fe16P20O80,mp-581532
0.0,-2.3883533629166678,Eu2I2O2,mp-600622
0.0,-0.5161016626041661,Y2Ni2B2C2,mp-612670
0.0,-0.8679218725000002,Dy4Ge8Pt4,mp-616492
0.0,-0.013913772857142601,Ba2Cu26,mp-642
0.0,-0.6122794255882352,Ca8In6Au20,mp-645719
0.0,-0.6143688718965519,Ti6Co16Si7,mp-672677
0.0,-0.6860164912068961,Hf6Co16Si7,mp-672689
0.5769000000000002,-2.220510570590279,Ba2La4Mn2S10,mp-6770
0.0,-0.8555626005434782,Ce18B6C12Br10,mp-680283
0.0,-0.15797584992753608,Mg6Ti4Al36,mp-684031
0.0,-1.4064613080000001,Cd8Pb8O24,mp-685257
2.9215,-2.832684162625001,Ca12Ga8Si4Sn8O48,mp-695070
0.0,-0.848943993750001,Sm8Si20Ru12,mp-697708
5.635,-2.188525473280513,K2B10H16O24,mp-706621
0.0,-0.4435353382499997,Sm1Rh3C1,mp-7167
3.0286999999999997,-2.6732650040476194,Li4In4Si4O16,mp-7205
0.0,-0.26594407374999984,Er2Cd6,mp-7303
5.9597999999999995,-3.1886898439601663,Rb1Be2B1O3F2,mp-7323
0.0,-0.4848480087962959,La2B8Ru8,mp-7347
2.4223,-1.8203695775702173,Ba2V4H4Se8O28,mp-735536
0.0,-0.2211551062499999,Li1Si1Cu2,mp-7473
3.7288000000000006,-2.9734813032500003,K1Nd1O2,mp-754158
0.0,-1.3852009599999997,Sr2Pt6O8,mp-756374
0.0,-2.755047782565263,K12Eu4Si12H8O40,mp-758551
1.0794000000000001,-0.40295978816666667,K4Ag2As2,mp-7642
0.7792000000000003,-1.8963383278026318,Na2Sb10O26,mp-766341
2.5665999999999998,-2.223047936369732,Cs16Si4O16,mp-771255
2.2371999999999996,-3.0304346442857146,La4Hg2O8,mp-779287
0.0,-1.744079079296875,Dy1Se1,mp-814
0.0,-0.2098030342968753,Hg1Se1,mp-820
4.9436,-3.4183721427675002,Ba1Sn1F6,mp-8290
0.0,-1.2877299649305565,Ta2Pd1S6,mp-8435
0.0,-0.2729402849999998,Li1Pd3,mp-861936
0.0,-0.6820713500000002,Ho2Pd1Ru1,mp-861941
0.0,-0.2953822174999998,Li1Tm1Tl2,mp-861969
0.0,-0.4831882062499995,Sc2Al1Os1,mp-862486
0.0,-0.7923137362499997,Sc1Sb1Rh2,mp-862635
0.0,-0.41379058675000024,Er5Al15,mp-862656
0.0,-0.6672741631250001,La1Cd1Au2,mp-862743
0.0,-0.4098986468749999,Pm1Hg1Rh2,mp-862913
0.0,-0.6128826393749995,Pm1Pb1Au2,mp-862951
0.0,-0.3151681887500004,Pm2Co1Ir1,mp-863660
0.0,-0.40135163833333376,In1Pd2Au1,mp-863724
0.0,-0.38000526749999963,Ta2Nb1Ir1,mp-864640
0.0,-0.5296205624999999,Yb2Tl1Pb1,mp-864741
0.0,-0.14345878999999861,Mn2Ir6,mp-865022
0.0,-0.5817261004166667,Ti1Zn1Pd2,mp-865079
0.0,-0.25236260425,Na1Sm1Tl2,mp-865109
0.0,-0.6982920474999998,Mg1Ga1Rh2,mp-865125
0.0,-0.42729426250000024,Be2Cu1Rh1,mp-865308
0.0,-0.3123403287499995,Tm2Hg1Os1,mp-865340
0.0,-0.2851796987499995,Mn1V2Os1,mp-865462
0.0,-0.2509212475000009,V2Cr1Ru1,mp-865494
0.0,-0.6664614625000009,Lu1Hf1Ru2,mp-865846
0.0,-0.5765777393749998,Yb1Pm1Hg2,mp-865911
0.0,-0.6684892325000007,Al2Fe1Ir1,mp-866031
0.0,-0.5944713374999999,Ba2Hg1Pb1,mp-866106
0.0,-0.29572693749999956,Dy1Nb1Ru2,mp-866126
0.0,-0.25342964333333323,Ce1Cd2,mp-866189
0.0,-0.32008532690476194,Gd4Ni13C4,mp-866397
0.41710000000000047,-0.26674542125000045,Co8Sn12Te12,mp-866481
0.0,-0.46183340875000134,Sc1V1Ru2,mp-867137
0.0,-0.42585987749999976,Li1V1Rh2,mp-867829
0.0,-0.4596212312499999,Al1Fe2Si1,mp-867878
1.9491999999999998,-0.9974950991666667,K4Na4Te4,mp-8755
0.0,-0.9856602635714289,Nb2P2,mp-9339
0.0,-0.6871990666666665,Ho2Cu2Ge2,mp-9389
0.0,-0.8943422427272726,Tm3Ge4Pd4,mp-9694
0.0,-0.8553109650000001,Tm10Sb6,mp-972463
0.0,-0.8662961387500001,Sm2Ge2,mp-972521
0.8556000000000004,-0.764814773325397,Ba3Na3P3,mp-9732
0.0,-0.34442866791666615,Lu2Zn1Ag1,mp-973653
0.5231,-1.9982491589520002,Ru2F8,mp-974434
0.0,-0.25573232624999953,Nb1Tc2Ge1,mp-977409
0.0,-0.27874409249999843,Ta2Cr1Ru1,mp-977425
0.0,-0.3249992662500003,Er1Mg1Zn2,mp-977433
0.0,-0.7615819610000003,Nd4Mg2Ge4,mp-977548
0.0,-0.47385675729166676,Sm1Dy1In2,mp-978796
0.0,-0.2906327200000005,Be6Ni2,mp-984315
3.7526,-1.9102859229749654,Rb2Na1Bi1Cl6,mp-989520
0.8084999999999998,-0.9137506443749999,Cd2Au2O4,mp-997036
0.0,-0.8684782789333333,K2Ag2Br6,mp-998553
4.4047,-1.9588104086000002,K2Ca2Br6,mp-998599
0.0,-0.9280451408333334,Ti2Pt2,mp-998949
0.0,-0.8964471574999999,Sm4Ge8Pt4,mp-1005755
0.0,-0.6687500009090893,Hf3Ni4Ge4,mp-10076
0.0,-0.2300939355555555,Mg1Ag1Sb1,mp-1008903
2.6752000000000002,-2.053254131388891,Re16O56,mp-1016092
0.0,-0.6613413625,Li2Sb1Pd1,mp-10180
1.3611999999999997,-0.5497642357142851,Li1Zn1P1,mp-10182
0.0,-0.816242505,Li3Dy1Sb2,mp-1018763
0.0,-0.6582979173809527,Ni2P2Rh2,mp-1018823
0.051000000000000156,-3.119124409768519,Ce8B28O54,mp-1019597
0.0,-0.7495874800000001,Zr2Be2Si2,mp-10200
0.0,-0.5551783248214284,Ce2Re2Si2C1,mp-1025285
0.0,-0.5164837946875007,Ta4Ga2C2,mp-1025427
0.0,-1.25922437,Y4Pt4,mp-1025448
0.0,-0.7958416000000001,Sm4Si4,mp-1025489
0.0,-0.5709544008333325,Sc2B1C2,mp-10343
0.0,-0.43519467555555497,Hf3Cu4Ge2,mp-10379
0.0,-0.6137328422222228,Dy6Fe1Te2,mp-10516
0.0,-0.7372298999999998,Y2Al1Si2,mp-10527
0.0,-0.673626041,Tb1Co1Si3,mp-1069044
0.0,-0.1577867859999998,Cr1Ga4,mp-1070544
0.0,-0.5856932191666667,Ce1Si1Ni4,mp-1072537
0.0,-0.6056463799999996,Tb2Sn4,mp-1072922
0.0,-0.8066744793055557,Sm1In1Pt4,mp-1077380
0.0,-0.6900184283035722,Sn2Rh3S2,mp-1078054
0.0,-0.49316498555555555,Er3Cd3Ga3,mp-1078684
0.0,-0.39803475166666685,Tm4In2Cu4,mp-1078916
0.0,-0.9918559998571425,Eu4Zn2P4,mp-1078980
0.0,-0.7309934269999999,Nd4Cd2Ge4,mp-1079135
0.0,-0.5624611111111099,Sc3Mn3Ge3,mp-1079729
0.0,-0.25627817375000017,Y4Cu4,mp-1080443
0.0,-0.2392120936666668,In2Ga4Au4,mp-1080559
0.0,-0.7113458700000006,Yb2Al4Pd2,mp-1080600
0.0,-0.43603362999999995,Mg3Ga3Au3,mp-1080605
0.0,-0.9132622161111104,Lu3Sn3Pd3,mp-1080768
0.0,-0.35981812536458274,As4Pd4Se4,mp-10849
0.0,-0.9387081100000003,Ho4Pd4,mp-1087502
0.0,-0.13855367874999924,Eu4Cu4,mp-1087547
0.26209999999999933,-0.9033323916666672,Zr1As1Ir1,mp-1093991
0.0,-0.6773618106249994,La2Co2Ge4,mp-1095134
3.7494000000000005,-3.5681919375,Y2Nb2O8,mp-1095229
0.0,-0.9015004924999998,Yb3B3Pt6,mp-1095422
0.0813000000000006,-0.9964691199999999,Ce4As8,mp-1101892
0.0,-0.8656717950000002,La4Sb8,mp-1101942
0.018500000000000405,-0.7407080041666667,Hf4Ni4Ge4,mp-1102702
0.0,-1.2212556148809515,Y4Ni4P4,mp-1102854
0.0,-0.37040242714285704,Ce2Au12,mp-1103758
0.0,-0.3142548620000006,K1Cr5Te8,mp-1103869
0.0,-0.940320180499999,Nd9Pt6,mp-1103985
0.0,-0.7847047083516477,Ta5Ni4P4,mp-1104139
0.0,-0.5220909578571431,Hf4Cu2Si8,mp-1104535
0.0,-0.5167417362500002,Tb12Rh4,mp-1105609
0.0,-0.4714933158333334,Y6In10,mp-1105835
3.1670999999999996,-1.9024891318461117,Si2Ni3H4O9,mp-1105877
1.0131999999999999,-2.4838009149374995,Pr2Tm6S12,mp-1105931
0.0,-0.9998641581249998,Eu10Sb6,mp-1105949
0.0,-0.7012824230555553,Ca4Ag4Sb4,mp-11214
0.0,-0.4641677720312498,Hg1S1,mp-1123
0.0,-0.49427737999999977,Hf1Tc1,mp-11460
0.0,-1.1435282408888885,In1Cu6O8,mp-1147679
0.0,-0.6727410327272723,Lu7Ni2Te2,mp-11752
0.0,-2.5077784447500004,Ba6La2Ir4O18,mp-1182400
0.0,-0.2081115591666669,Cd2Ag1Pt1,mp-1183537
0.0,-0.4413644187500001,Ca1Eu1Tl2,mp-1183609
0.0,-0.49827642375000014,Eu2Cd1Pb1,mp-1183962
0.0,-0.06298244875000059,Fe1Tc2Ge1,mp-1184276
0.0,-0.5167198512500004,Ho1Zr1Ru2,mp-1184822
0.4887999999999999,-0.024556038666666495,Mg149Tl1,mp-1185635
0.0,-0.3672911593749999,Pm1Hg3,mp-1186580
0.0,-0.30923285624999997,Pm1Nd1Zn2,mp-1186618
0.0,-0.7504013943749994,Pm1Y1Rh2,mp-1186677
0.0,-0.4075276125,Sr1Eu1Tl2,mp-1187174
0.0,-0.4089110587500002,Ta2Tc1Os1,mp-1187210
0.0,-0.38943547333333317,Ti2Mo1Pd1,mp-1187417
0.0,-0.7649801806250007,Eu4Ge4Pd8,mp-1188312
0.0,-0.41927656874999997,Zr12Rh4,mp-1188413
0.0,-0.5335561377777778,Hf10Ni2Sb6,mp-1188693
0.0,-0.6858014438888884,Tm4Si8Mo6,mp-1188982
0.0,-0.6832862802083337,Sc4B8Os4,mp-1189073
0.0,-0.3489464809090912,Ga18Rh4,mp-1190908
0.0,-0.5072505891304347,Dy4Ga16Co3,mp-1191222
3.7965999999999998,-2.6718067658333324,Li2Dy2W4O16,mp-1192153
0.0,-0.6176575856060602,Ho6Fe2B14,mp-1192262
0.6514000000000006,-0.9295059789534887,Ca42Zn8Sb36,mp-1194667
4.0909,-2.2190860298394397,Cs4Y4Se8O24,mp-1195090
1.1358000000000001,-1.0062653838888893,Sr32Si8As32,mp-1196120
0.0,-0.21091084131579033,B6Pd32,mp-1196893
0.0,-0.4821528443749988,Sc12Re12Ge24,mp-1197212
0.0,-0.0998295351086954,Sm2Cd40Ni4,mp-1197639
1.9444000000000001,-2.4062326056230066,Cs6Dy21S34Cl1,mp-1197810
0.0,-0.36386432262500035,Nd6Co8Sn26,mp-1198940
4.7387,-3.739970160475129,Tb16B4Cl4O28,mp-1199026
0.0,-2.79267653625,Li2La4Ir2O12,mp-11992
7.269,-3.405420245439194,Ba3B3P3F30,mp-1199844
3.3331999999999997,-3.3055125501136375,Ba4La8W4O28,mp-1203123
0.0,-0.12999415397959235,Ga40Sn1Mo8,mp-1203338
0.0,-0.7045528813888882,Tm8B24Os4,mp-1203429
0.12290000000000001,-0.7424533525659234,Cs12Ti12Te44,mp-1203892
0.0,-0.2797276557894726,Er4Fe28Si6,mp-1204517
0.0,-0.3427007477439017,Tm10Mn13C18,mp-1204728
5.355300000000001,-2.0615449497978284,Cs4Na8H12S12O48,mp-1205112
0.0,-0.2533130577777772,Hf4Co14,mp-1205422
0.0,-0.6254455590000007,La4Ru4I2,mp-1205711
0.0,-0.7853668730555552,Nd3Sn3Ir3,mp-1205749
0.0,-0.431749685555555,Y6Mn1Bi2,mp-1205904
0.0,-3.0807508235000007,Ba2Er1Re1O6,mp-1205977
0.35580000000000034,-0.9096443373809523,Sr2P2Au2,mp-1206849
0.0,-0.4145203688888894,Tm6Fe1Bi2,mp-1206935
0.0,-0.8664110274999999,Y4Al18Ir6,mp-1207707
0.0,-0.5564906306250004,Tm10Ni4Sb2,mp-1207984
0.0,-0.32570161499999983,Ti3Nb1Al2,mp-1208228
0.0,-0.23113669586206928,Ti6Be15Cu8,mp-1208242
0.0,-0.5212223220833335,Tb16Cd4Ir4,mp-1208463
0.0,-0.5673021224242428,Tb6B14Mo2,mp-1208474
0.030100000000000016,-0.3093277724528299,Tb12Ta8Al86,mp-1208500
0.0,-0.26556373348837153,Ta48Al38,mp-1208546
3.1023,-3.120815850520834,Sr4Co2Si4O14,mp-1208846
0.0,-0.7033327725985224,Nd3P6Pd20,mp-1209966
0.0,-0.16476119750000015,Nd16Mg4Ni4,mp-1210038
0.0,-0.31372891241379314,Nb2Ni21B6,mp-1210179
0.05390000000000006,-0.13001613157894773,Pr12Co6Pb1,mp-1210509
0.0,-0.16401047999999996,Li4Al2,mp-1210753
0.0,-0.8912601414166665,Nd24In2Pt14,mp-1211197
3.8494,-2.6614162477499996,K2Pr2W4O16,mp-1211425
2.9598999999999998,-2.2519972442604175,K2Cr2S4O16,mp-1211656
0.0,-0.4837018586666668,Ho3Ga9Os3,mp-1212057
0.0,-0.9261300356370664,Nd16Ni36P22,mp-1212241
0.0,-0.815822472499999,Hf30Ir18,mp-1212499
0.18259999999999899,-3.4473076000390632,Eu2Al24O38,mp-1212749
0.36149999999999993,-2.5312715805570627,Cs4Ga4Ag4F24,mp-1213239
1.4191000000000003,-2.293575631893959,Cs2La2Zr12C2Cl36,mp-1213380
2.5917999999999997,-3.076498089422858,Ca4Mn4Si4O16,mp-1213991
0.0,-0.5184908425170074,Ce6Cu24P12,mp-1214035