band_gap,formation_energy_per_atom,full_formula,task_id
0.1221000000000001,-0.5062322143055561,K20Tl12O4,mp-555531
4.8824000000000005,-2.9540697499196438,K8Ca4P8O28,mp-555914
4.2231,-2.369026681704545,Sr8Br12O2,mp-556049
3.7911,-2.2285910275503573,Fe8P4Cl4O16,mp-556581
4.7648,-3.3124892745454564,Y4Si2C2O14,mp-556661
3.9321,-2.7232871863530006,Ba12Bi4Cl12O12,mp-556855
1.7774,-1.6425848515,K4Na4Zn4O8,mp-557183
3.2754,-2.905530841566666,K2Mn1F6,mp-557397
5.6217,-2.8858181146420883,Rb2Be4P6O20,mp-557673
3.2593,-2.468792109326924,La4Sb4Mo8O36,mp-558000
5.4542,-2.428644395556572,P8Cl8O8F16,mp-558681
0.552,-2.1803731714375005,Sr4Zr4S12,mp-558760
3.0225000000000004,-2.2537500966479995,K8Mn2Mo6O24,mp-558825
1.4215,-1.167242591083334,Ag8Te8O24,mp-559257
4.2046,-3.6791498362500015,Y6Br2O8,mp-560029
5.6189,-4.405214923595,Er12O8F20,mp-560114
3.4858,-2.6797390214285706,Li2Mg2V2O8,mp-560157
2.3306,-1.8270961946495512,Rb8Sb32O52,mp-560587
3.7954,-2.769348610095,Ca8As4Cl4O16,mp-560595
0.5100000000000002,-2.3316790698823526,K6Si2Cu1O8,mp-560675
0.4605000000000001,-0.5660638362499997,Nb12Te32I28O4,mp-560687
1.3206000000000002,-1.0687553544834183,Nb4Tl2P2S20,mp-560847
5.2152,-2.9652438258928586,Li2La2P8O24,mp-560866
4.2219000000000015,-3.0223348072329648,Rb2Na1Mo1F6,mp-560963
2.061,-3.4643161186111104,Ba12Ta24O72,mp-561103
1.6666,-2.94706253866,Na6Mn2F12,mp-561200
1.7094999999999998,-1.1093949909387713,Ca51W12N56O3,mp-561360
3.7999,-2.545826659788461,K6Ga6B6O21,mp-561525
2.5247,-1.8481508733116323,Ba14B8S26,mp-562764
1.1194999999999995,-1.5169716049399993,La2N2,mp-567290
1.777,-0.38980630440872943,K4Na2B2P4,mp-567836
3.8014,-1.7145078758333334,Sr4I8,mp-568284
1.3910999999999998,-0.527525969031656,K8Hg4P8Se24,mp-568855
1.4556,-0.24514182408482196,Sn4P4Se12,mp-570370
0.4599000000000001,-0.2798684063636365,Cd2Hg8As4I8,mp-570838
4.0292,-2.1549734434866665,Y3Al9Cl36,mp-570857
0.5201999999999999,-0.8612009616080002,Os1Cl4,mp-571035
2.7944,-1.3163134887538337,Hf2Se4Cl24,mp-571313
0.6789000000000001,-2.262015789660018,Cs6Tb20C8Cl42,mp-571397
4.4851,-1.9996807980689653,Rb4Yb4Br12,mp-571418
3.0469000000000004,-2.230387481875,Li6Sb2O8,mp-5769
0.918,-1.5465686762305266,Na12W12Cl52,mp-583762
0.9552999999999998,-0.6326094631666663,Na2Mg2As2,mp-5962
3.2668,-2.8812062964772736,Nd4Al4Ge8O28,mp-6016
3.1395,-2.8672357895133884,Cs8Fe6F20,mp-616023
2.1952,-2.062946951558448,Cs2Pt1S6O18F6,mp-622197
1.4074999999999998,-0.4583630089843753,Re12Se16Br4,mp-624200
0.032399999999999984,-0.7162526657142863,La8Rh6,mp-626
0.6237000000000001,-2.2531766803689237,Cs4Cu6P8O28,mp-638252
0.3841000000000001,-0.5259016260714284,Tm4Cu12Te12,mp-640889
5.9622,-2.0721358718117857,Li4H4S4O16,mp-643458
0.3637000000000001,-0.4996211251723078,Ba10Ga12H4,mp-643683
1.0278,-0.8893411678399997,H16Pd2N4Cl12,mp-643735
1.1714000000000002,-0.7716130964814821,In32Sn8S32,mp-646878
0.06690000000000018,-0.405782945875,Na18As6,mp-655
4.495900000000002,-3.4221198496875007,Sr4Mg2Si4O14,mp-6564
2.0646,-0.26065806993142865,Ge12N16,mp-672289
5.2611,-2.3491595003060004,Na3Y1Cl6,mp-675104
5.3245,-2.4193619252946426,K2Li2S2O8,mp-6800
2.6056,-1.722673871538462,Bi14Mo1O24,mp-691119
7.648099999999999,-2.353538641781851,B2H6O2F8,mp-696379
5.6370000000000005,-2.609429304516391,Ca2P8H4O24,mp-697657
3.8425,-1.6351281177934265,Rb8As16H40O64,mp-699453
1.2502999999999995,-0.9725790046112014,K1Cr1P2S7,mp-7147
3.6926,-0.6015175832599994,H28I4N8,mp-721084
3.3701000000000003,-1.5577914324406867,K4Te2H12Se2O20,mp-723043
4.9055,-1.9428029074316675,Na10H6C8O24,mp-730460
0.4795999999999996,-3.7403822252500007,Eu1Hf1O3,mp-753781
3.462699999999999,-3.6425190442105273,La6W1O12,mp-755135
4.4196,-3.1855954285416668,Li4Hf2O6,mp-755352
2.3038,-3.5513154243269236,La2Ta6O18,mp-757365
4.9452,-1.7231688187500371,Ni1P4H16N2O16,mp-758839
3.3023,-1.5259288002916669,K4Sm4H16N16O56,mp-759030
3.1907,-2.1800513363333334,K2Tc2O8,mp-7621
2.5936,-2.229978215695813,Cs12Ho4O12,mp-768211
2.1222000000000003,-2.445777665511905,Na4V2P2C2O14,mp-770717
3.7438,-2.3035921498452385,K4Bi2P2C2O14,mp-772808
2.1033000000000004,-1.7358798595500005,Na16Sn8O16,mp-778057
1.7027,-2.790019620071112,K2Re1F6,mp-7824
3.4456,-2.9106604688362068,Rb1Nd1O2,mp-7973
1.5692000000000004,-0.6292724670312504,Tl6Sb2S8,mp-8378
0.4139000000000004,-0.8529991312499998,Sr2Bi1Au1,mp-867193
0.9609,-0.7427801971379309,Rb4Mn2Te4,mp-8720
3.2504,-2.2409679461605094,Cs2Na4B2O6,mp-8871
0.10029999999999983,-0.4707734720000002,Yb1Cd2Sb2,mp-9257
0.4532000000000007,-0.4642616411111114,Zr1In1Au1,mp-961693
0.16220000000000034,-0.33938467660714217,Lu2Al6C6,mp-973586
1.499,-0.7892904651149427,Rb2Ca2Sb2,mp-9846
0.9923,-1.147294149175,K2Br1Cl6F1,mp-989591
2.1963,-1.8578334477140004,Tl8Hg8F24,mp-998758
2.7898999999999994,-3.576868956153848,Ca2Ti3O8,mvc-2955
2.8867000000000003,-2.6751800059186746,Ca20Ge32B12O102,mp-1019569
5.253500000000002,-2.1332408069604885,Rb4Si2S12O42,mp-1020711
1.1978,-1.1133952873540744,Sr8Ti2N8,mp-1029799
1.2059000000000002,-1.0834019986900003,Li4Nb4N8,mp-1029903
2.0361,-1.9027821463750003,K2Sb2O4,mp-10417
0.3824000000000001,-0.5300949159999998,Sr1Mg2Bi2,mp-1069695
0.04010000000000069,-0.29963618541666764,Sm1Ni5,mp-1075
2.4109,-1.5460641102377768,Sr2B1Br1N2,mp-1077553
3.8404,-2.217821340826296,K1Zn2B1Cl2O3,mp-1078186
0.048100000000000254,-2.88813306575,Ba2Y1Os1O6,mp-1078303
1.6857,-0.8291202000468747,K2Cd1Sn1Se4,mp-1079645
0.9730999999999996,-1.966369831449354,Rb2Sm4Cu2S8,mp-10835
0.4353000000000007,-0.3237527878645838,Fe4As4Se4,mp-1101894
0.7573999999999996,-1.4401181906250002,Lu4Mn2Se8,mp-1103893
1.3946,-1.2332072053313574,Cs2Y2Hg2Se6,mp-11123
2.6331,-1.3285035588250005,K4Zn2S4,mp-1147773
2.9052999999999995,-1.971341869899426,Cs12Ge4O14,mp-1178450
3.4416,-2.5704872141349204,K2Sn4P6O24,mp-1180718
4.2264,-1.3214856352559785,Ni2H20Se4O20,mp-1181715
0.4530000000000003,-0.8420345600000004,Gd6Sb8Au6,mp-1188599
2.9455000000000005,-2.4300126924107155,Tb2Co1Te2S2O14,mp-1190385
1.0744000000000002,-0.8816100569278998,Cs2Dy4Ag6Te10,mp-1190421
1.9052,-1.7247583530525077,Cs8Fe4O10,mp-1191216
2.314,-2.141993674564395,Ba6Sm2In2S12,mp-1191360
0.30820000000000025,-1.7938199587351196,Gd8P8S8,mp-1191365
1.5457999999999998,-1.3989758686647735,Er4Tl2Cu6S10,mp-1192137
2.8981000000000003,-1.2548548539952793,Rb3In1I6O18,mp-1192770
1.6171000000000002,-1.9356217394971924,Cs6Cr4Cl18,mp-1193179
1.6315,-1.659876827857143,Co4Sb8O16,mp-1193389
0.4582999999999999,-2.1616565056999995,Mn10V2O16,mp-1193782
4.7860000000000005,-3.66644105550926,Ba2Ho8Si10O34,mp-1195686
2.2880000000000003,-3.835512996028572,Li8Ce8F40,mp-1195868
3.3560000000000003,-2.555159121912459,Cs8Cd4P8O28,mp-1195999
2.6627,-2.2708300403089083,Cs4V8Sb4O32,mp-1196047
3.2696,-1.5598707704530772,Er4N12O36,mp-1197536
0.3195000000000001,-0.4394329440212981,Cs72Nb16As48,mp-1198953
1.2195999999999998,-2.288081254101564,Dy8Zr4S20,mp-1199023
1.1924,-1.8441584223026328,Gd16Si12S48,mp-1199792
3.7161,-2.612221281940412,Rb12Cd4B20O40,mp-1200569
2.6599,-2.082374985364082,K8Tc36O108F44,mp-1201694
1.1162000000000003,-0.9568950638888888,Ca6Al4As8,mp-1205338
3.0693,-3.0388525415602423,Rb4Na4Ti8P8O40,mp-1209409
4.3651,-2.117775373793103,Rb4Ba8Br20,mp-1209437
3.6192,-2.6229108348204018,Rb4Ho4Mo8O32,mp-1209629
0.9686,-2.917381928043333,Na1Sm1Cu2F8,mp-1209940
0.18100000000000005,-3.0400332079464283,Nd6Re4O18,mp-1210151
6.2549,-3.6145246393925,K2Ta2F12,mp-1211395
3.0195,-1.4745606579375,K8Nd4I20,mp-1211886
0.3123,-1.857354405322421,Cu2Ag4P4O14,mp-1213198
1.1401000000000003,-1.3379290006944444,Ba2La2Ag2Te6,mp-1214348
1.6362999999999994,-2.9468595210227275,Tb4Fe2Sb2O14,mp-1217709
3.0365,-2.7882414947205363,Rb2Cr2Ni2F12,mp-1219589
2.7552,-2.4964458162420176,Rb2Ti1W3O12,mp-1219784
2.0311,-1.9118986918206524,Pr6Cd1Ge2S14,mp-1219914
1.0078,-0.6795122015064937,Na8Ca4Si2P8,mp-1221207
2.9251,-1.6715826374999996,Sn4Te12O32,mp-12231
2.1832000000000003,-3.0830789022500005,La4Cr2Fe2O12,mp-1223369
0.01639999999999997,-2.9167172193490263,K4Nb12P12O60,mp-1223540
0.4152000000000001,-0.9329400119014196,Cu2Ag5Se4N1O15,mp-1225986
2.0597000000000003,-1.7533993074595002,Cr4H4Pb8Cl2O20F2,mp-1226437
0.6707,-3.0608608966266666,Sr2Cu2F8,mp-12265
5.5695,-3.327450925104168,Ba2Be4Si4O14,mp-12797
1.2963000000000002,-0.31103818674999983,K3Cu3As2,mp-14205
2.1746,-1.3392752935757906,Rb4Nb2Ag2S8,mp-14636
5.658499999999999,-2.683571121760417,K4Nd4S8O32,mp-14665
0.9449,-0.8615894344090911,Na6Ca6Al2As8,mp-15572
1.1811999999999996,-3.2612932515000006,Tb2Te1O2,mp-16036
0.18990000000000015,-0.4366958997323997,Cs2Ag6Se4,mp-16234
0.9474999999999998,-1.4980087302968754,K2Er4Cu2Se8,mp-16560
1.3029000000000002,-1.4084400495000002,K1Y1Te2,mp-16763
3.0276999999999994,-1.7783789129296883,Mg4Se8O20,mp-16771
4.2813,-2.5859017581363646,K2Li14Zr3O14,mp-17208
3.2396,-1.8387886068214288,K12Sb4O12,mp-17250
1.3295,-1.47139905995,K8Na12Tl4O16,mp-17375
5.296,-2.940075237170635,K2Sm2P8O24,mp-17439
0.8030000000000004,-3.226295788281249,Sm8Re4O20,mp-17741
2.6751,-2.5828302874954643,Cs4Sr2V8O24,mp-18160
1.5002999999999995,-1.0017506832169127,Ta4Tl8S22,mp-18344
3.3273,-2.8914464577933336,Na4Fe4F16,mp-18455
4.3731,-3.0291633205104174,K4Si12Ge2O30,mp-18460
2.1575,-1.4665508601488102,Ho8P8S32,mp-18532
3.487,-3.211419897025264,Rb4Ti2Si12O30,mp-18582
1.9393,-1.4628451724999998,Cr2Ni2O8,mp-18726
2.7361000000000004,-2.1443333784933336,Mn4Mo4O16,mp-19081
1.8813,-2.4622834202500004,Ba6Co2Sb4O18,mp-19337
3.1114,-2.9111096559313734,La4Co4B20O40,mp-19475
3.9476,-2.3980602362500005,Na10Y2Mo8O32,mp-19497
0.2832999999999997,-0.2677561033333333,Fe2As4,mp-2008
3.4728,-3.0536080315175003,Ca1Pb1F6,mp-20463
0.11750000000000015,-2.92360930425,Sr4Lu2Ru2O12,mp-20687
0.003599999999999603,-0.4811336059999988,Gd1Mn2Ge2,mp-20837
3.2816,-3.228844383750001,Li4Gd4O8,mp-21332
3.5549,-3.059200340568184,La8Ge8O28,mp-21532
0.02469999999999928,-0.2636054302298854,In2Ni21B6,mp-21551
0.4310000000000001,-0.5682944842968753,Pb1Se1,mp-2201
0.0064000000000001825,-0.9412024111111114,Gd3Mg3Pt3,mp-22028
3.763100000000001,-2.3254623477417584,Na6Fe2P2C2O14,mp-22135
1.4632999999999994,-1.82979033525,Co4Ge4O12,mp-22136
2.9717,-2.237119603055556,V2In2O8,mp-22443
2.9974000000000003,-1.2632663795312498,Li2Se1,mp-2286
3.7261,-3.2511695820833335,La2Br2O2,mp-23023
6.4110000000000005,-2.759910279972614,Li10B14Cl2O25,mp-23122
1.4850000000000003,-1.8469742778640457,Cs3Mn3Cl9,mp-23336
3.1981,-1.0736561713888897,Zn4I8O24,mp-23360
0.6409,-1.1659318597413793,Rb8Co4Br16,mp-23366
2.128,-1.6472285946637548,Cs2Pt1Cl6,mp-23406
0.07420000000000028,-0.5631295583203118,Nb12Se48I4,mp-23410
2.5139,-1.5290315337499991,Bi16Br8O20,mp-23544
5.4306,-2.0943392428653573,K16H16S16O64,mp-23800
2.5289,-1.9949432342440392,K1Cr3H6S2O14,mp-24009
5.3874,-0.4593677448405306,Cs2B12H12,mp-24136
4.5333,-1.8284474902021577,Rb4Mg2H16C4O20,mp-24606
3.8476,-1.6247892150650003,Sc4H12N4Cl12,mp-24741
2.1625,-2.305630694821429,V4O10,mp-25279
2.1091,-1.7276688895441181,Na32Fe8O28,mp-27557
1.1425999999999998,-1.7225383072844442,K2Tc1Cl6,mp-27632
1.1627,-1.09118269014875,Sb2As4Cl26,mp-27786
0.3853000000000009,-0.4479452128571433,Tc4P12,mp-28029
3.817800000000001,-0.767095040626856,Na12P24N44,mp-28161
1.6106,-0.8310303308538892,Pd1S2Cl6,mp-28174
0.8003999999999998,-0.16113172386363575,Pt12I32,mp-28320
1.5583,-0.8764778785416668,Nb8Br40,mp-28601
0.23030000000000014,-2.458551107205882,Ba10Ru4O20,mp-28908
2.1746000000000003,-2.0168195893000007,V12Bi24O64,mp-29058
3.847,-3.0378526264285712,Al4Zn2O8,mp-2908
2.2498,-0.8289719752237501,Hg24Te8Cl32,mp-29102
2.9139999999999997,-2.2134026494318184,Li5Sb1O5,mp-29364
2.1399,-1.5711246805649992,La6B6N12,mp-29597
2.0380000000000003,-1.417917733214286,Hg8Mo4O16,mp-29893
2.8062,-3.153184553376288,Zr6Ag7F31,mp-29934
1.1514000000000002,-0.2476734932031248,Tl16As16Se32,mp-30236
1.7812,-2.237704435535357,Y4Au10F42,mp-30309
2.062,-1.653765576902174,As4Pb16O26,mp-31107
3.0215,-2.308239232583334,Bi4B4O12,mp-31250
0.7724000000000002,-2.2446649777272736,Sr12Tl8O24,mp-31355
1.4863999999999995,-2.334661162019231,La2Sb6O18,mp-31418
0.24790000000000045,-2.4636396559565,Mn3Nb6O11,mp-31908
1.5647000000000002,-0.7625138207142861,Li1Mg1P1,mp-36111
2.6979999999999995,-3.0526146669318197,Ho4Sn4O14,mp-3884
1.3671000000000002,-0.5262424849479173,Ag4Sb4S8,mp-3922
0.052999999999999936,-0.16715744499999996,Zn2Ge2As4,mp-4008
3.7311,-2.6245745449130427,Na8Ga6Si6I2O24,mp-40226
0.2429000000000001,-0.8016609559568966,Rb3Au1O1,mp-4405
4.984,-2.3195980254374997,Na4S2O8,mp-4770
2.0194,-3.5640281083125003,Gd2S1O2,mp-4805
2.8967,-2.0498425427689657,Cs6Mn2Cl10,mp-504451
1.3272000000000002,-0.8805094474741381,Cs6Au2O2,mp-505212
4.564,-3.196937533548872,K8Y4Zr4P12O48,mp-532727
3.7777,-2.4237306288450005,Sb12O8F20,mp-541240
2.0491,-2.7682862255833327,Ba6Cr4W2O18,mp-541512
1.3568000000000002,-0.4660590907432353,Rb8Ag4As12Se24,mp-541916
3.0085,-2.562854337234196,Cs8Ti8As8O40,mp-541956
1.4612000000000005,-1.0266706831758003,Rb8Zr6Se28,mp-542013
7.1465,-3.6622376771927594,Rb4Na2Al6F24,mp-542451
1.293,-2.028019135848214,Sm2Zn2P2O2,mp-550820
1.6317,-1.70795031328125,Dy4Cu4S8,mp-554120
1.8343,-1.674777802389785,K28In8O26,mp-554146
3.6505,-2.7346416551960786,La12Mo18O72,mp-554402
1.7774,-1.96450463474,K12Mn12O24,mp-554900
1.2356000000000005,-0.6773393523214288,Hg2Bi4S8,mp-554921
5.3735,-2.8235229681628566,W4F24,mp-555003
4.8126,-2.816113240739011,Na6Mg4P10O32,mp-555005
3.924,-2.7549871421363634,K4Zn2Si4O12,mp-555318
3.961,-3.084166114339744,Na18Tm6Si12O42,mp-555421
4.6001,-3.172738587467391,Na16Sc8Si16O52,mp-555825
4.288399999999998,-2.541851413294644,Na4P4Pb2O14,mp-555933
3.24,-2.4435094416346157,Nd4Sb4Mo8O36,mp-556535
2.2759000000000005,-0.8771622551660713,K2Sb2P4S12,mp-556609
4.7341,-1.7552154190964833,Al8P12H36C12O36,mp-556858
4.3692,-2.418564406632382,Ca12Si24N24O24,mp-556884
0.5070000000000006,-1.9301691072098217,Sr3Fe2Cu2Se2O5,mp-557020
3.0509,-2.903386435554661,Cs2Ta4P10O36,mp-557186
0.8719000000000006,-1.8172898470312504,Gd1Tl1S2,mp-557655
1.7526000000000002,-1.0097723016729545,Sb2S2Cl18,mp-557809
2.0459,-2.2770665732000004,Na2V2Ge4O12,mp-558048
1.6005,-1.8029682098671929,Ti8S16Cl12O2,mp-558135
4.3671,-2.5014930142672918,Dy4Se4Cl4O12,mp-558257
4.0922,-3.018255243764,K2Na1Fe1F6,mp-558674
1.1916,-1.1334662823902528,Ti2Tl2P2S10,mp-558747
1.6476,-1.508482860867458,Rb4Li2V2S8,mp-558815
2.3088999999999995,-1.6889645316785722,K2La2Ge2S8,mp-559043
2.0441000000000003,-1.326980497416666,K2Na4Au2O4,mp-559067
5.2922,-2.7239238078535717,K8Li8P16O48,mp-559142
1.4713000000000005,-1.942200647217432,Cs4In12O20,mp-559213
2.1723,-1.2934491647288082,Cs8In8S16,mp-559459
5.3634,-3.08998598031404,Ca8P12O38,mp-559537
0.3397000000000001,-1.5758820847222224,K8Na8Ir4O16,mp-559878
2.8409000000000004,-3.065806935364584,Sr4Ti4Ge4O20,mp-559957
2.9610000000000003,-2.369938979919107,Mn4Bi4P4O20,mp-560153
3.8215,-2.7290440539761907,Na6Ga6Si6O24,mp-560632
0.5022000000000002,-2.239200547834052,Nd20S38,mp-560786
1.6112,-0.876084734327586,Cs2Sn2Hg3S8,mp-561185
0.3984999999999999,-1.6634864954444435,K6Li2Ir2O8,mp-561288
4.7687,-2.957128151493749,K8Bi4F20,mp-561290
3.33,-1.9638287709500009,K6Bi4As6O24,mp-561369
2.146,-2.4335670889756926,Co12B28Br4O52,mp-562349
1.4685,-0.6652033132135418,K2Nb2Ag4Se8,mp-567177
0.9102999999999994,-1.0007782371153848,Ca56Al4Sb44,mp-567799
1.6263,-1.85267612828,Al4V2Cl16,mp-568443
4.0444,-1.9148523320443347,Cs6Y4Br18,mp-568937
1.4736,-0.7219121206718748,K2Sn1Hg1Se4,mp-568968
2.1081,-1.1735816930951786,Sb2As2P2Cl26,mp-569209
2.3147000000000006,-2.1793415069062503,Na1Ho1S2,mp-5694
0.6800999999999999,-0.9037061302413794,Cs2Au2Br6,mp-569548
1.3224,-0.7443003564523811,K24Cd24Te36,mp-571637
1.2960999999999998,-0.7123300537356325,Cs2Te2Au2,mp-573755
1.5081000000000002,-0.6354055399110994,Cs8As8Se16,mp-581864
0.22299999999999984,-2.9804549227060435,Ce2P6O18,mp-5843
2.2750000000000004,-2.219744628099196,Cs6V8Te4Cl2O28,mp-624117
3.16,-0.4399381427581821,Li2Mg4H14Ru2,mp-643276
5.5152,-3.4424127317913618,Ca10P6O24F2,mp-6473
3.1247000000000003,-3.6805552875245113,Nd4Ti8O22,mp-654139
4.2537,-3.4672089679956897,Ba7Al64O103,mp-667379
0.4371999999999998,-1.1260214006818183,Ho7Cu3Te12,mp-675189
0.9622999999999996,-0.4816160732352941,Yb2Ga12Te20,mp-676644
2.1299,-2.7119244986566096,Rb4Ce2O6,mp-676666
3.305400000000001,-2.8525829313043483,La3Ga5Sn1O14,mp-6788
3.1705,-3.2226890047282617,K4Na4Gd8Nb4O26,mp-680381
3.3379000000000003,-2.043683173537058,Na4Pr8Br18N2O2,mp-684783
4.7346,-3.3176490327407415,Ba2Na4Al8Si8O32,mp-6875
0.33030000000000004,-2.341970531820477,K3Cu2P4H1O14,mp-695887
3.3641000000000005,-1.7859513215472065,Sb16H8S4O40,mp-698480
2.9733,-2.3879513422926486,Ti4P8H16O36,mp-707483
2.9696,-3.812167731780304,Dy8Ti8O28,mp-752425
3.6197,-3.909014026477273,Er6Ta2O14,mp-756277
4.5547,-2.455053937740588,As16H8Pb8F104,mp-758957
1.0930000000000004,-2.128741644848571,Li4Mn6Sb2O16,mp-763186
1.5778,-1.6724843562100848,La8H8Se24O80,mp-765350
0.4358999999999997,-2.9922176034772727,Sr16V8O31,mp-767432
1.4167000000000003,-2.2309815690476205,Li3Cr10Fe5O24,mp-771093
4.4135,-2.9841664147500016,Li12Hf4O14,mp-772185
5.1867,-2.5276582183639547,Rb8P8H8O24F8,mp-774810
2.0896,-1.3729211443489593,Zn4Se4O16,mp-778924
3.6011,-1.8354424861566092,Rb4Te2O6,mp-8248
2.8040000000000003,-2.2753825228452382,K2Na4B2O6,mp-8263
0.8073999999999999,-0.7015045838389995,Ba6Co2C6N6,mp-861914
0.4532999999999996,-0.3296190600000003,Mg1Be2As2,mp-865185
2.6859999999999995,-2.2192022414924577,Rb1La1S2,mp-9361
3.0655,-2.3602800537202393,Sr3Ge12O27,mp-9380
1.2727000000000004,-0.9465376489999996,Ca1Mg2As2,mp-9564
1.3013999999999997,-0.3137493129501916,Rb6B2As4,mp-9718
4.208599999999999,-2.6674573819097227,B8Pb2O14,mp-9747
0.041600000000000026,-2.612142641904444,Li4Ru2F12,mp-976955
0.7338,-0.5414470684050001,Sr1Al1Ge1H1,mp-980057
6.7528,-4.25358835746,Sr1F2,mp-981
2.6721,-3.080905193116666,K3Ta3B2O12,mp-9870
1.6833,-1.8009908551562503,Sm1Tl1S2,mp-999138
1.8434,-1.7077067304218752,Na1Y1Se2,mp-999448
0.851,-0.4770277928571432,Mg1Be2P2,mp-1017628
1.1621,-0.6854242076666667,K2Mg2As2,mp-1019089
4.8767,-3.3322979159057984,Ba4Ca2Si8B4O28,mp-1019518
5.2036,-3.305194118504498,Cs2Ca20P14O56,mp-1019714
1.2165999999999997,-1.4895648636899999,Sr2Zr2N4,mp-1029275
1.0621,-0.5435179011900004,Mg4Sn4N8,mp-1029791
4.0364,-1.0060939705027272,Y4C6N12,mp-1029920
1.8137,-1.7792904746424998,Li1Au1F6,mp-1079483
1.2797999999999998,-2.0657496869641667,Sr2Ag2Te2F2,mp-1080438
1.0391999999999997,-1.574887358463542,Ba2Er2Cu2Se6,mp-1101781
1.6991999999999998,-0.7842994659698276,Cs4Ge2Se8,mp-1104024
1.7497000000000005,-2.6476024124053787,Cs2Na1Rh1F6,mp-1111979
2.0647,-1.3651859036646912,Cs2Tb2Cd2Se6,mp-11121
1.7856,-1.8270390216473795,Cs2Na1Tl1Cl6,mp-1112527
5.126200000000001,-2.51241560099738,Cs2K1Lu1Cl6,mp-1112760
0.002400000000000624,-0.323838026666667,V3Te6,mp-11687
2.7837,-1.8362196942213889,Na1Co2H3S2O10,mp-1173715
1.3066,-1.404698545926725,Cs1Nd1Te2,mp-11742
4.3469999999999995,-2.0798355798936847,K2Mg1Mo2H4O10,mp-1181784
0.19399999999999995,-0.02024263684999975,Nd1Mg149,mp-1186599
0.2530999999999999,-0.02154086979999969,Tb1Mg149,mp-1188078
1.1693,-0.7114199167968751,Zn1Se1,mp-1190
1.3643999999999998,-3.1628342424177123,Rb2Pr2Nb4O14,mp-1190185
3.7859,-2.6656188554166658,Li2Y2W4O16,mp-1191085
0.4359000000000002,-0.9563598952586204,Cs6Nb4I18,mp-1192748
1.7613,-2.49446153875,Ba4Sm8S16,mp-1194376
3.3198,-2.527891313295456,Ba8As8O28,mp-1194732
0.6305000000000001,-1.0881016622187505,Cu4Hg4Se8O24,mp-1194904
4.3677,-2.933035722503148,Ba8Na2Ga4B16Cl6O36,mp-1195176
2.3493,-1.9941467868142633,Cs4Cr4As8O28,mp-1195248
0.7357,-0.99571189875,Ba24Ga8As24,mp-1195592
3.1728,-3.032257347019983,Rb16Mn8Si40O96,mp-1195883
2.4205,-1.6207900380815006,Mn6Sb10I6O18,mp-1196009
0.3668999999999998,-1.4221038915000002,Y32Ru8Br40,mp-1196369
2.1672,-1.2346463329449997,Cs6Hf4P10S36,mp-1197320
2.2433,-1.942425357937501,Sm16Ga4Sb4S36,mp-1199065
2.0605,-1.0391876091899641,Cs12Bi8P12S48,mp-1200951
2.2693,-0.17376374909474318,P16Se12Br8,mp-1201169
2.3095,-2.4725165228814,Cs4Nb6Cl14O10,mp-1201406
3.1751,-2.656579065,Tl8Si10O24,mp-1201442