band_gap,formation_energy_per_atom,full_formula,task_id
0.0,-1.5929491254886365,K4Nb6S12,mp-1224044
0.49649999999999994,-0.679580521090909,K8Ba4Sn2As8,mp-1224063
0.0,-1.2324720257068966,K1Ti12Se16,mp-1224082
0.0,-0.692398524342499,Hf2H1C1,mp-1224333
0.0,-0.49066669833333404,Eu1Al1Si1,mp-1225173
3.6127,-4.102339320376251,Dy6S2O2F10,mp-1225346
0.0,-0.24473720166666743,Be4Al1Fe1,mp-1227272
5.1322,-3.152103221098901,Ba1Be2P2O8,mp-1227988
1.8282000000000003,-2.563224277027777,Ba3In2Mo1O9,mp-1228643
0.0,-2.357364861666667,Yb4Sb4O16,mp-1237084
0.0,-0.19158372999999784,Mo2Rh2,mp-12595
0.0,-0.34499519222222197,Zr6Al2Co1,mp-12760
0.9108,-0.909467236666667,Ho2Ag2Te4,mp-12904
0.0,-0.7243303749999995,Ce1Si3Ru1,mp-13120
0.0,-0.8845885108333336,Y20Ge16,mp-13360
3.7720000000000002,-3.0635616928409104,Y8Ge8O28,mp-13546
1.8082999999999996,-1.6747283325000004,Sr2Cu4O4,mp-13900
0.0,-0.7200675200000006,Hf2Si2Te2,mp-13963
0.0,-1.6904922844642871,Zr4Cu2S8,mp-14025
3.9542,-3.007766773076923,Sr4Ga8Si8O32,mp-14235
1.8079999999999998,-2.302350294885532,P18Rh6O54,mp-14935
1.1658999999999997,-2.0423363820312503,Ba2Er2Cu2S6,mp-14969
0.0,-1.9500154214285712,Pr2Pd4O8,mp-15050
0.0,-0.00994755449999971,Sb14Mo6,mp-1521
0.0,-0.3874366241964294,Cu2Rh4Se8,mp-15614
1.4273000000000007,-3.209415850500001,Sm2Te1O2,mp-16033
0.0,-0.18103467638888857,Cd9Au9,mp-16886
2.7838000000000003,-1.9771373755,K16Ge4O16,mp-17015
0.0,-0.7687991414285713,Er6Ge8,mp-1711
0.0,-0.18003509384615385,Ca4Al40Cr8,mp-18142
2.6795999999999998,-2.194627901538462,Ba1V2Ni2O8,mp-18723
0.04279999999999973,-0.2855515825000001,Sn1Te1,mp-1883
0.0,-0.44043807812500013,Sm1In3,mp-19977
0.010200000000001097,-0.30407007615384557,Ce1Al8Cu4,mp-20003
0.0,-0.7432106340625007,Nd6Ge10,mp-2015
0.0,-1.0574277333333342,Dy4Si4Ir4,mp-20281
0.0,-0.8173499019841266,Ti4P8,mp-20327
0.0,-0.3405574237500004,Ca1Pb3,mp-20549
0.0,-0.1980455224999993,Cr4As4,mp-20717
0.0,-0.6004544083333331,Sm4Co4Ge4,mp-20777
0.0,-0.3023685489583334,La3In1,mp-20909
0.0,-0.0002711591666664977,Fe3Sn3,mp-21260
1.3674,-2.024495840277778,Cr4Te2O12,mp-21355
0.0026999999999999247,-0.7184818680000007,Gd1Si2Os2,mp-21408
0.0,-0.11009001413793104,K5Pb24,mp-21613
0.0,-1.0491432499999989,Ce2Si4Ir4,mp-21900
0.0,-0.580257282321428,Co4P4,mp-22270
0.0,-1.0761779024999996,Y4Sn4Pt4,mp-22275
0.0,-0.4340922156896552,Mn6Si7Ni16,mp-22290
0.0,-0.3266550136718749,Mn1Cu2Sn1Se4,mp-22400
1.2418999999999998,-1.73031511675,Na2Bi2O4,mp-22984
2.2731999999999997,-1.3882792695833335,Bi2Br2O2,mp-23072
2.5498000000000003,-0.9881419058638095,P4Au4Cl16,mp-23355
2.8354,-2.1039551043055553,Bi16B8O36,mp-23356
2.1391,-1.1058038724904213,Cs2Te1Br6,mp-23405
0.0,-0.17032256000000043,Ni10Sb4,mp-2409
0.0,-0.786352175746666,Tm1H2,mp-24727
0.0,-0.23782297600000002,Na4Hg4,mp-255
0.0,-0.6000357483333332,Dy4B16,mp-2719
4.407900000000001,-1.7815922335069447,As4S2O12,mp-27230
3.8907999999999996,-2.579299375952,Sb2As2F16,mp-27317
4.917,-2.689911248695,Tm2Cl6,mp-28044
1.5837999999999999,-1.685083987714,As2Br6F12,mp-28159
0.0,-1.6513192992968748,Tm1Se1,mp-2822
0.0,-0.8310105083333342,Al4Pd8,mp-2824
0.0,-2.295815751779999,Sc2N1Cl2,mp-28480
2.4379,-1.9727550216071426,Li24Bi8O24,mp-28510
0.0,-0.40534644657142765,Sc30C40,mp-28733
3.835,-0.39905272864363633,Ba2Re2H18,mp-28911
0.0,-0.5428304728571435,Nb6Te6As2,mp-28968
1.0191999999999999,-0.5019097817013889,Na10Au2Se24,mp-29198
0.0,-2.2605719501136368,Ca4Os4O14,mp-2923
1.407,-1.605475908588362,Cs4Eu8I20,mp-29613
0.8085,-1.1154488668451785,Re4P2Cl26,mp-29878
1.6517,-1.4411869217187505,Au8S8O32,mp-30003
0.0,-0.2742653839999998,Sr9Ag6,mp-30357
0.0,-1.0268341999999997,Er1Bi1Pt1,mp-30454
0.0,-0.13238841416666675,Bi48Rh12,mp-30467
0.0,-0.6062671200000006,Dy3Al3Ni3,mp-3053
0.0,-0.6520818316666666,Er3Tl3Pd3,mp-30609
0.0,-0.546537376666667,Ti3Ga3Ni3,mp-30656
0.0,-0.5460049139999995,La8Sn24Ru8,mp-30756
0.0,-0.3257701599999998,Li3Pb1,mp-30760
1.3824,-1.7930692172823615,Pr8Se6N4,mp-31303
3.4828,-3.7693944712500014,Nd6Ta2O14,mp-31417
0.0,-0.28560557499999994,Mn1V1,mp-316
0.0,-0.9995312661111113,Er3In3Pt3,mp-3526
0.0,-0.43276132000000017,Eu1Cu2Ge2,mp-3557
2.7499000000000002,-2.4619549083333334,Zn12Si6O24,mp-3789
0.0,-1.072899065,Er1Si2Ir2,mp-3907
0.42199999999999993,-0.706161788340517,Rb4Mn6Se8,mp-4052
0.0,-0.47245982888888943,Y1B2Ru3,mp-4382
0.0,-0.5540797272727283,Y6Al4Ni12,mp-4577
0.0,-0.3091806799999999,Pr1Zn1,mp-460
0.0,-0.4575247837500003,Zr2Ni6,mp-485
0.0,-0.2436672019999996,Y4Mg2Cu4,mp-4901
0.0,-2.54102997025,Eu4Fe4O12,mp-504703
0.0,-2.2815567715909086,Sr6Cu2Ir2O12,mp-504867
2.3937999999999997,-1.9796273016125392,Co8P4H4O20,mp-505217
0.0,-0.8335009449999999,Pr2Ge2,mp-511
0.0,-0.5635878946666665,Dy1Co2B2,mp-5135
3.3129,-1.7673200346562499,Na4Se2O8,mp-5141
0.0,-0.577507555999999,Ce1Si2Au2,mp-5173
0.0,-0.8724998490909092,Sr3Li4Sb4,mp-540803
0.0,-0.21988015837643685,Cs5Hg19,mp-542239
0.07469999999999999,-1.8517917267113093,K4Na4Cu12S12O52,mp-554726
1.3376000000000001,-2.3947107481525003,La12S12N4,mp-555129
5.2189000000000005,-2.234554118806819,K2Na2S4O14,mp-555576
1.5999999999999999,-1.9115446209709814,V4Hg16P8O36,mp-555798
3.1248,-1.9613464091783406,Rb8Mo4Se4O24,mp-556349
2.7566,-3.4656930094300002,Ba4V4O4F16,mp-556379
5.579899999999999,-2.167796572287552,Na8P4H4O12,mp-556699
2.2117999999999998,-1.1840139848263893,Tl3Ga9S13O2,mp-556717
4.2892,-2.6801011786199997,Li8Al6Ge6Cl2O24,mp-556886
1.9524000000000001,-0.7645961322716666,Hg4I4N4O12,mp-557250
4.0723,-3.0077307762329655,Rb2Na1Fe1F6,mp-558078
3.6165000000000003,-3.383133412050001,K2Nd4Nb2O12,mp-558128
1.5741999999999998,-1.8235025096186666,Ba4Au8F48,mp-558168
5.218299999999999,-3.028338839734545,Na10Ga6F28,mp-558924
3.3575999999999997,-2.5839959550306704,Rb4Mn16P12O48,mp-560306
4.102600000000001,-3.320811860233517,Zr4P4O18,mp-560358
4.2397,-2.910040354157088,Cs16Si16O40,mp-562345
0.0,-0.9850086817857138,Hf4Sb2P2,mp-567220
1.9240000000000002,-0.6995418049040177,Na8P4Se12,mp-567228
4.8987,-2.4768778141973797,Cs2Li1Y1Cl6,mp-567652
0.0,-0.25179582275862117,Rb1In6Au4,mp-568168
0.0,-0.25468759854166645,Ce20Mg19Zn81,mp-569703
0.0,-0.616582242222222,Er12Ni36Ge24,mp-570035
0.0,-0.6877312287500003,La8Zn8Rh8,mp-570525
0.0,-0.8710545249999996,Er1Ge2Rh2,mp-570680
0.9451999999999998,-1.8952069815341117,Cs2Lu2Nb12Cl36,mp-570921
3.7658000000000005,-0.29064519868555533,C6N6Cl6,mp-571324
1.2152,-1.8120060278055172,Rb2Mn1Cl6,mp-571648
0.0,-0.6534784880555549,Sm2Ti2Ge2,mp-5919
3.7220000000000004,-3.4631310778205133,Ba4Ti2Si4O16,mp-6081
3.4713,-2.941427969087302,Li2Gd2P8O24,mp-6248
0.0,-2.6874491115833328,Ba6Ce2Ru4O18,mp-6301
2.3552,-0.735457268214286,Mo24Pb4Br56,mp-649327
0.0,-1.7454666215649566,Ti20H2N17,mp-675452
0.0,-0.15154738742187446,Cu3As1Se4,mp-675626
2.9445,-2.2384861650895735,Nd20Si20Br2N34O18,mp-677195
5.735399999999999,-2.8845528809405883,Be8Si4H4O18,mp-707304
0.2862,-2.6342542029000002,Sr40Fe18Co2Mo20O120,mp-720269
1.6743999999999999,-1.2350233553313579,Cs2Pr2Hg2Se6,mp-7211
3.6678999999999995,-3.0777742582112073,Rb1Er1O2,mp-7477
0.0,-2.3799300060124997,Li1Mn1F6,mp-752752
0.0,-0.5866397037500004,Li1Mg1Sn1Pd1,mp-7555
1.513,-1.9667508331250003,Li3Fe4Sb1O8,mp-756320
0.0,-2.5003994339245463,Eu4Mn4O14,mp-761284
0.8219000000000003,-0.23267519150000027,Mg4As16,mp-7623
0.0,-0.5535817396031746,Ni3Mo3P3,mp-7632
0.0,-3.342733669283854,Ba6Ti7Nb9O42,mp-773061
0.0,-1.9852689332142859,Li4Fe6Sn2O16,mp-773163
3.8648000000000002,-3.413192694010417,Er12Ge6O30,mp-774547
0.0,-2.5737543807875087,Mn14P16O56,mp-778008
0.0,-0.7670760887499997,Sc10Si6,mp-7822
0.0,-3.449023579393636,K10Ti6F28,mp-8447
0.0,-0.6026368225000001,Al1Fe1Rh2,mp-861953
0.0,-0.3694799130000007,Pr10Al4Ru6,mp-861986
0.0,-0.8875662024999995,Sc2Ni1Pt1,mp-862368
0.0,-0.3882009612499999,Sr2Tl1Cd1,mp-862740
0.0,-1.0146135706250003,Ca1Pm1Pt2,mp-862886
0.0,-0.3964238606250001,Pm1Ni2Sn1,mp-862952
0.0,-0.4819701868749995,Pm1Rh2Pb1,mp-862958
0.0,-0.28796939083333317,Ho1Cd1Ag2,mp-864904
0.0,-0.1721810961250001,Na1Hg1Pd2,mp-865097
0.0,-0.5601688061111112,Lu6Ni14B4,mp-865190
0.0,-0.33136007874999995,Zn3Rh1,mp-865342
0.0,-1.2076867149999995,Yb1Tm1Pt2,mp-865415
0.0,-0.4384250441666664,Lu2Ag1Ru1,mp-865459
0.0,-0.4995622624999996,V2Ir6,mp-865496
0.0,-0.6681172393749999,Li4Pr4Ge8,mp-865658
0.0,-0.5424027875000004,Ga2Ir1Rh1,mp-865743
0.0,-0.8241369199999999,Yb1Hf1Rh2,mp-865759
0.0,-0.3268153175862066,Cs1Cr5Te8,mp-866025
0.0,-0.3083262637500006,Er2Cu1Os1,mp-866100
0.0,-0.8831311900000012,Tm2Ru1Pt1,mp-866119
0.0,0.0,Pm4,mp-867200
0.0,-0.33965767437500016,La1Mg1Cd2,mp-867848
0.0,-0.7269560725000002,Sc1Cd1Pd2,mp-867911
3.865,-2.7506701664439652,Cs4Zr2O6,mp-8759
0.0,-0.5988342174999998,Nd2Si4,mp-884
0.0,-1.0293524505555558,Yb3As3Pd3,mp-8953
0.0,-0.5566012822222217,Sc3Fe3Ge3,mp-9549
0.0,-0.7567067462499999,Yb2Ga4Pd2,mp-972051
0.0,-0.07483055862499999,Na1In3,mp-976589
0.0,-0.18445350750000067,Nb3Ru1,mp-977434
0.0,-0.5016769075000003,Pm2Zn1Rh1,mp-983229
1.8795000000000002,-1.5195248424500007,Na3Br1O1,mp-985586
0.15479999999999983,-0.7289290496031745,Ba2Ag2P2,mp-9899
0.0,-0.5902639790000002,Tb4Co6Ge10,mp-1005831
0.0,-0.17047513833333264,Hf2Zn1,mp-1014231
0.0,-0.22284007333333333,Li2Ag2,mp-1018026
0.0,-0.5187922424999991,Hf2Ni2,mp-1018056
0.0,-0.652205769172,Yb1Ni1H3,mp-1018647
0.0,-1.1749293141666666,Nd2Sb2Te2,mp-1018814
0.0,-0.463800940714286,Er1Ga5Co1,mp-1025225
0.0,-0.6043159476785698,Gd2Re2Si2C1,mp-1025361
2.7588999999999997,-1.296973573026666,Ba12Ta24N48,mp-1029616
0.0,-0.7485220223214303,Ni6S8,mp-1050
0.0,-0.31792241625000006,Nd1Zn1,mp-1053
0.0,-0.6612552384999993,Nd1Co1Si3,mp-1069204
0.0,-0.13510676375000016,Mg1Ni3C1,mp-10700
0.0,-0.3411501433333329,Yb1Cu4Au1,mp-1077165
0.0,-0.43934340333333327,Zr2Ga2Cu2,mp-1077351
0.0,-0.33253041232142827,Er2Cr2C3,mp-1078190
0.0,-0.8063599739760001,La2Co4As2N2,mp-1078291
0.0,-0.31010707074074084,Ni6Ge2B1,mp-1078540
0.0,-0.6503277999999995,Hf3Al3Ni3,mp-1078767
4.1768,-0.9576343080555555,Mg1Br2O6,mp-1078861
0.0,-0.7630701572222228,Tm3Zn3Pd3,mp-1079471
2.0370999999999997,-0.3917500883399998,Pr1Al1H6,mp-1079627
0.0,-0.6640830537499998,Al4Cu2Ir2,mp-1079890
0.0,-0.10783685187500014,Cu2Si1Hg1Te4,mp-1080131
0.0,-0.40959883875,Eu2Hg6,mp-1080132
0.0,-0.7103467113888884,Sm3Zn3Pd3,mp-1080449
0.0,-0.6204203396296291,Ti6Ge2B1,mp-1080829
0.0,-0.9387784850000003,Tb2Te6,mp-1084847
0.0,-0.7454270524999996,Eu4Cd4Pt4,mp-1095346
0.0,-0.4512105890909087,Ba2Ni5Ge4,mp-1095498
0.0,-0.16051160916666637,Tb3Co9,mp-1095562
0.23859999999999992,-1.385108647864584,Pr4Sb4Se4,mp-1102688
3.2414,-1.981755926827816,Cs2Br2F8,mp-1103152
0.0,-0.36784051875000046,As4Pd12,mp-1105134
0.0,-0.37308537397058883,La1As12Os4,mp-1105556
0.0,-0.17686304855902713,Ni8Bi8S1I1,mp-1105564
0.0,-0.8034887949999989,Sm4Ge8Ir4,mp-1105662
2.0934,-1.5904571192187493,Te2Pb4O10,mp-1105700
0.42989999999999995,-1.2822223797708332,Ti4Ge4S12,mp-1105715
0.0,-0.9855958672222221,Er6Ge6Pd6,mp-1106394
0.0,-2.026473612024966,Rb2Eu1Cu1Cl6,mp-1113297
0.0,-0.3907466675000002,Be8Re4,mp-11275
0.0,-0.10524764499999995,Mg2Cd2,mp-11307
0.0,-0.6289805950000003,Tb2Ga2,mp-11417
0.0,-0.5196156207692303,Dy2Al6Si4Pt1,mp-11630
0.04300000000000015,-0.45395265833333315,Hf2Te10,mp-1168
2.3148,-2.312921636761905,Na4Fe2P2C2O14,mp-1176399
0.0,-0.4721214756249985,Sc6Ru2C8,mp-1179515
0.0,-3.234655208928573,Eu12O16,mp-1182716
0.0,-0.83488445375,Gd1Sn1Pd2,mp-1184508
0.0,-0.750405544375,La1Mg1Au2,mp-1184999
0.0,-0.5695296637499991,La1Pm1Ir2,mp-1185004
0.02450000000000019,-0.015414435333333169,Mg149Cr1,mp-1185585
0.0,-0.48611223854166674,Nd1Y1In2,mp-1186379
0.0,-0.34481036499999984,Pm2Al1Zn1,mp-1186441
0.0,-0.27417455687499803,Ta2Re1W1,mp-1187208
7.026199999999999,-0.11574869710666628,Si2H16,mp-1188318
0.5390999999999999,-1.4007667010000007,Dy8Te12,mp-1188427
0.0,-0.6097034958333332,Er4B8Os4,mp-1189333
0.0,-0.4037930394444452,Zr10Ga2Pb6,mp-1189448
0.0,-0.5989810160000004,Y14Rh6,mp-1189474
0.0,-0.8167899509999998,Sm4Ge10Rh6,mp-1190112
0.05830000000000002,-0.4513569793181818,Nd6Ga4Ni12,mp-1190620
0.0,-0.5378213169047622,Y2Ni12As7,mp-1191314
0.0,-0.6394423223611104,Tb4Mn4B16,mp-1191670
0.0,-1.1352391342447108,Rb8Fe4S10,mp-1191800
3.2447999999999997,-1.594641675208333,As6Pb4Br2O12,mp-1192209
2.9747999999999997,-1.815624579993843,Cs4Ho4Si4S16,mp-1193331
0.0,-0.3218752057142861,Pr4Ni20Sn4,mp-1193428
1.0897000000000001,-1.9800291477678564,Ba4Gd8Se16,mp-1194410
1.8013,-0.9457505653714511,Rb4Sn6Sb4S20,mp-1194540
1.4864999999999997,-1.1850252462187503,K8Cd4Sn4S16,mp-1194826
1.3863999999999999,-1.0191517296629555,Cs8In8Hg8S24,mp-1194853
0.0,-0.6620539489999999,Ce4Cd2Pd4,mp-11965
2.3286000000000002,-2.010576296111112,B4Mo2Pb12O24,mp-1196917
2.1985,-1.31321495478125,K6Ta4Cu6S16,mp-1197797
0.0,-0.7672444155555548,Lu24Te8Au4,mp-1199600
1.6764000000000001,-1.655519875260417,Dy8Ag8S16,mp-1200233
0.0,-0.25271292083333324,Yb1Cd1Cu4,mp-12009
3.3790999999999998,-2.8154422077738097,Na2Pr6Ge8O26,mp-1202169
0.0,-2.2731118512890633,Ce8Zr4S20,mp-1203122
2.4495999999999998,-3.5507649828330003,Ba4Ca2V4Co2F28,mp-1203415
0.0,-0.4462800273333329,La8Ni24B8,mp-1203921
1.4330999999999998,-3.7157936168334613,Ba40Cr24F144,mp-1204444
3.2201999999999997,-1.1821434736781609,Cs24Zn12I48,mp-1204449
1.1684999999999999,-1.6289423195891208,Ba4Y2In2Se10,mp-1205397
0.0,-0.8363324206666665,Yb4In2Au4,mp-1205889
0.0,-0.6472612858333334,Nd3Mg3Au3,mp-1205903
0.0,-0.5019848707499989,Ce2Si2Os4C2,mp-1205921
0.0,-0.3895464544444438,Lu6Mn1Bi2,mp-1206034
0.0,-0.3909050952413793,Cs1Co2As2,mp-1206830
0.0,-0.5107329941666663,Zr8In4Au8,mp-1207424
0.9278,-0.9705988016666667,Zr12Ge2I28,mp-1207495
0.0,-0.7189143590640397,Yb3P6Pd20,mp-1207642
0.0,-0.9343236722222225,Tm10Ge4Sb4,mp-1207953
0.0,-0.8380022657142854,Tb4Al18Rh6,mp-1208540
0.0,-0.7146665082881778,Sm3P6Pd20,mp-1208970
0.0,-2.7845601403800146,Rb3Yb1P2O8,mp-1209305
0.0,-0.7788192263333329,Pr4In8Pt8,mp-1210096
0.0,-0.6042292378676472,Nd46Cd8Pt14,mp-1210477
3.7859999999999996,-2.668617608333333,Li2Tb2W4O16,mp-1211005
0.0,-0.20428382509803936,Lu12In2Fe3,mp-1211033
0.0,-1.1745822789285714,La12Au4I12,mp-1211485
6.4923,-3.6292591701139996,K6Ho2F12,mp-1211714
3.0974,-1.5276271400635721,Li12Y4N24O72,mp-1212171
0.0,-0.6992640350000003,Er4Ga18Rh6,mp-1213067
3.0498,-2.659279420512822,Gd4Hf4Mo14O56,mp-1213333
0.0,-0.8830578307142866,Zr5Co19P12,mp-1215734
0.0,-0.6524241283333326,Y1Cu1Ge1,mp-1215905
0.0,-0.14809722500000078,Y2Fe2Co2,mp-1215958
0.0,-0.460434546250001,V10Si3Ge3,mp-1216775
2.3388,-1.9604634355000001,Tl2V6Cd8O24,mp-1216804
0.0,-1.9481031081640632,La4Sn2S10,mp-12170
0.0,-0.4722557895833335,Ti1Al1Ni6,mp-1217044
1.6057999999999995,-0.9377606195684519,P4Rh4S4,mp-1219924
0.0,-3.0498749007,Na1Sr1Nb2O6,mp-1220869
3.4204999999999997,-2.5832570726666666,Na1Nd1Mo2O8,mp-1220980
0.9486000000000003,-0.6550167387792211,Na8Sr4Si2P8,mp-1221153
0.0,-0.6167947346883118,Na8Eu4Ge2P8,mp-1221300
0.0,-0.3435996391466662,Mo12Pd4Pt4N4,mp-1221504
0.0,-0.11627863249999966,Li2Zn1Cu3,mp-1222617
0.0,-0.5484596572499996,La1Pr1Mn4Si4,mp-1222827
0.0,-0.4563616195833345,La1Ni4Pt1,mp-1222871
1.1425,-2.5333104437499996,La2Co1Ni1O6,mp-1223259
3.5361,-3.286472962386364,La7Ta3W4O30,mp-1223362
0.0,-0.4203078697499997,La1Gd1Cu4Sn4,mp-1223511
0.0,-0.15847738999999925,Hf1Zr1W4,mp-1224067
0.0,-0.040369837037037115,Ga5Ag13,mp-1224870
0.0,-0.3896965950000002,Er2Cu1Ni1,mp-1225072
0.0,-1.7583737788507143,Eu2P1Cl1,mp-1225319
0.0,-2.6359411756554554,Eu4Mn2Sb2O14,mp-1225478
0.0,-0.5876774583333333,Er2Ga3Cu1,mp-1225597
0.0,-0.2609206516666666,Ce1Al2Ag3,mp-1226637
0.0,-0.4943127650000001,Ce2Al6Cu1Au1,mp-1226991
0.0,-0.3199729805555555,Ca2Zn2Ag2,mp-1227020
0.0,-0.8619642774999994,Ca2Pt1Au1,mp-1227265
1.1120999999999994,-3.0607694617499996,Ba6Nd2Y1Mo3O18,mp-1228132
0.0,-0.579547779927895,Ag6Hg1N1O11,mp-1229201
7.5543000000000005,-3.950420292043333,Ba4Be4F16,mp-12431
0.0,-0.4258809999999998,Mg2Rh1,mp-12693
0.0,-0.6553500312499994,Sc2Al4Ni2,mp-12781
0.0,-0.6558345624999996,Sm2Al2Si2,mp-12804
0.0,-1.1194359823809528,Pr2P2Ir2,mp-12921
3.5872999999999995,-3.5281362760000015,Ba2La1Ta1O6,mp-13055
0.0,0.0,Zr2,mp-131
0.09719999999999995,-0.8561733925,Sm1Sn1Au1,mp-13305
0.006400000000000183,-0.3267449298333333,Na4Cd4Sb4,mp-13459
0.0,-0.26874220466666693,Na4Au2,mp-1363
0.9679,-2.0622064448611113,Cd6Si2O10,mp-13820
0.09439999999999849,-0.6435877303571429,P12Ir4,mp-13853
1.1683999999999999,-1.2926556021428577,Hg4Ge2O8,mp-13995
0.11399999999999999,-0.3255854735000001,K6As2,mp-14018
2.5520000000000005,-2.1343551031874997,K8Ge8Sb8O40,mp-14352
0.0,-0.30712203111111097,Eu2Ag4,mp-1436
2.3240999999999996,-0.39593593693999907,Na2Ge4N6,mp-14433
0.0,-0.6402156900000008,Y10Si28Os8,mp-14686
0.0,-0.13356429923076918,Be12Mo1,mp-1475
0.0,-2.2033959695312495,Sc1S1,mp-1476
2.1357999999999997,-2.0503010774062496,K8Sn8As8O40,mp-15107
0.0,-1.3581797199999999,Ce1Te1,mp-1525
0.0,-2.3758652388636374,Sr6Cd2Ir2O12,mp-15269
0.0,-1.5582315564375009,Nb6V2S12,mp-15958
0.0,-0.5279643440000001,Yb1Si2Au2,mp-16251
0.0,-0.3588455316666668,Li2Sn8Rh2,mp-16648
2.1551,-0.9204020011437503,Na12Si4Se14,mp-16961
0.0,-0.3092272873684212,Ba1Ni12B6,mp-17236
0.0,-2.0062059881250005,Gd4Cu2Se8O24,mp-17465
2.5331,-1.381945616531251,K8Ga8S16,mp-17650
4.2174,-2.9245507014996117,Ca2Mn2P4O14,mp-18743
0.0,-1.4860228442733334,Ba2Mn1Zn2As2O2,mp-19045
0.0,-0.5330780312499996,Ce1Sn3,mp-1911
0.0,-2.2281183504326925,Sr6Co5O15,mp-19235
0.0,-2.3787058232500002,Y4Ni4O12,mp-19242
2.0994,-2.5699518801476917,Ba4Mn8V8O32,mp-19507
0.0,-0.402681498333334,Ti1Al1,mp-1953
0.0,-0.24429344083333326,Ce1In1Cu2,mp-19834
0.0,-0.4766338041666671,Pr1In1,mp-20023
0.0,-0.6561495940476192,Li2Fe2P2,mp-20049
0.0,-0.8789816750000004,Tb4Ge8Pt4,mp-20054
0.0,-0.39164955000000035,Eu2Al4,mp-20111
1.8517000000000001,-1.1929254239895832,Na1In1S2,mp-20289
0.0,-0.4513101649999996,Pr1Mn2Ge2,mp-20542
0.03829999999999956,-0.4995992051851835,Eu2B8Ir8,mp-20578
0.0,-0.2180115400000003,Pd2Pb4,mp-20599
0.0,-0.5744394791666659,Nd2Fe2Si2,mp-20690
0.0,-0.5841608500000006,Eu1Fe2As2,mp-20890
0.0,-1.1691693714062508,Eu2Pd6S8,mp-20961
0.0,-0.5978409208333328,Y4Zn4Sn4,mp-20987
0.0,-0.9613875216426664,La3In1N1,mp-20999
1.6155000000000002,-1.198941141410715,K2La2Ge2Se8,mp-21097
0.0,-0.8787332548809523,Nb4Co4P4,mp-21449
0.0,-0.37437250181818177,Yb4Ga32Co8,mp-21795
0.0,-0.7306798366666669,Ho4Ge4Ru4,mp-22041
0.05430000000000046,-0.22796832476190435,In2Te6Mo6,mp-22061
0.0043000000000001926,-0.28732614875000007,Gd2Cd6,mp-22138
0.0031999999999996476,-0.8961989579999994,Gd1Ge2Rh2,mp-22187
0.0,-1.166911715625,Pd2Pb2O4,mp-22367
0.0,-1.2457423975000008,Cu4Te4O16,mp-22420
0.0032000000000005357,-0.39808466583333413,Eu2Ga6Co4,mp-22545
0.0,-0.9186453587500001,Sm1Bi1,mp-22873
1.387,-0.32226207036458315,Sb4Se4I4,mp-22996
1.9166999999999996,-2.91216980975,Sr4Lu2Bi2O12,mp-23100
3.9251000000000005,-4.03085776525,Dy16O24,mp-2345
5.368,-1.6469254977599996,Y2H24Cl6O12,mp-23958
3.044,-2.2151034585092595,Ag8B8H16O8F32,mp-24058
0.0,-0.34819245166666707,Sc2Co4,mp-253
0.0,-0.8662169249999998,Yb1Pd1,mp-2547
1.9815999999999998,-2.38209775198052,Mo4P8O32,mp-25868
2.218,-1.675844081759261,Tl16Ge10O28,mp-27271
4.9742,-2.7719215550999996,Na2Sb6F20,mp-27573
2.1972,-0.9828744440517241,Cs4Br12,mp-27641
0.0,-1.3112038058333333,Nd1I2,mp-28753
0.9832000000000001,-1.9908241420238098,P6Rh6O24,mp-28870
0.0,-3.1174493933924996,Nb1Cr1F6,mp-28907
0.0,-0.8937568470000002,Pr1Ge2Rh2,mp-2896
0.0,-2.0814194646569693,Sc8B2Cl12,mp-29452
0.0,-0.3472827094444446,Ba4Mg6Si8,mp-29564
0.0,-1.0868865169444453,La10Bi6Br2,mp-30212
0.0,-0.28677495237499995,Be68Ru12,mp-30443
0.0,-0.24498835249999984,Ca2Zn2,mp-30483
0.0,-0.22534169000000048,Ga1Fe1Co2,mp-30551
0.0,-0.4434972250000008,Ho1Fe2Ge2,mp-3065
0.0,-0.6496395372222218,Ho3Tl3Pd3,mp-30732
0.0,-0.19669005789473645,Ho24Co14,mp-30969
0.0,-0.6482568855263164,Ce6Al24Ru8,mp-31079
2.2728,-3.220693129722222,Y8Mo4O24,mp-31124
0.00039999999999995595,-0.5296108141964291,Tl1Cr5Se8,mp-3407
3.8106999999999998,-1.0020983654757138,Li2P2N4,mp-3524
0.0,-0.6881491908333328,Nd20Si16,mp-355
1.7496,-1.9458016413392858,Sr2Pr4Se8,mp-37859
3.7469,-3.4841433801041677,Sr2Al8O14,mp-3788
3.1087,-3.0623192897303957,Cs2Ti2Ni2O2F10,mp-41473
0.0,-0.73884860125,Sm1Rh1,mp-436