band_gap,formation_energy_per_atom,full_formula,task_id
0.12950000000000014,-1.8275781959375008,Pr2Zn2Sb2O2,mp-975646
2.4839,-2.826186728564815,Ba8Nd8Zn6Pt2O30,mp-9837
1.2979,-0.8369604801149425,Rb2Ca2As2,mp-9845
0.5594000000000001,-1.3493361690625,Hf1Se2,mp-985831
3.6388,-2.7263126992329654,Rb2Na1Tl1F6,mp-989548
0.4983999999999993,-0.6000646444279993,Ca2Tc2N6,mp-989638
0.014000000000000234,-0.3097119175000002,Ba8Si4,mp-9905
0.44610000000000016,-1.3587791654999997,Na2Cu2O4,mp-997041
2.9597999999999995,-1.0754574395999998,K2Ge2Br6,mp-998612
2.2711,-1.7492465572968752,Na1La1Se2,mp-999472
0.06380000000000008,-0.3602637067968741,Mn2Se2,mp-999540
2.3337000000000003,-2.2204388190312505,K1Y1S2,mp-1006888
5.6021,-2.1889070545038103,Li4P2N2O4,mp-1020019
4.8522,-2.658589449925825,Na6Li2P4O14,mp-1020164
3.2029,-0.9703072636899996,Zn4Si4N8,mp-1020712
3.8051,-2.038083745793821,Rb4Ge2S12O42,mp-1021330
1.9592000000000005,-1.3513682899399992,Ca8Ta4N12,mp-1029773
0.8826,-0.953259255305714,Ca6Ga2N6,mp-1029943
4.3135,-2.5683000424599998,Tl2Sn1F6,mp-10401
0.679,-2.532812592323979,Na4Cr8P8O36,mp-1040460
1.3089000000000002,-1.7327922993830818,Rb1Gd1Se2,mp-10781
0.16460000000000008,-0.17408391624999986,Zn1Cu2Si1Te4,mp-1078498
0.03739999999999988,-1.914273625833334,Sr1Ru2O6,mp-1079784
1.1086999999999998,-1.0630199875,Li4Ca4As4,mp-1095289
2.1311,-1.0123420680848212,Ba4P4Se12,mp-11008
0.9567999999999994,-0.08739463333333458,Sb4Te4Os4,mp-1103213
0.008600000000000385,-0.903088476666666,Zr4Ge4Pd4,mp-1103608
2.8985000000000003,-1.9560994330357153,Sr4Si2S8,mp-1104926
4.084899999999998,-3.135464441792833,Na3Mg4In1Si8O22F2,mp-1173861
0.3369,-0.7102797793816666,Y6H18,mp-1178678
1.3571000000000004,-0.6529974662413796,Cs4Al4Te12,mp-1189272
5.5029,-0.5791657590024997,Be4C4N8,mp-1189451
1.8433,-2.403074534937501,Pr4Sc4S12,mp-1189962
2.3634,-1.7922252905889575,Fe4Se4O12F4,mp-1190442
4.4779,-2.02218791358375,Tl4S4O12F4,mp-1190566
1.1161000000000003,-1.9097654953409091,Eu8I12O2,mp-1191507
0.43040000000000056,-1.926362244869792,Pr6Mn2Ga2S14,mp-1191521
0.6377999999999999,-2.6665480215909088,Li2Ca6Os2O12,mp-1191787
3.1255,-1.957621791183334,K6As6O18,mp-1192552
4.8626,-2.5906427484257644,Cs6Y4Cl18,mp-1192829
1.3861999999999997,-1.9804000002678572,Ba4Y8Se16,mp-1193099
2.6999,-1.2684998423124998,K12Sb4S12,mp-1194266
1.8208999999999995,-2.5143825319642863,Sr4Tm8S16,mp-1194307
2.7356000000000003,-3.230291732604168,Li8Ca4Ta8O28,mp-1194523
3.3999000000000006,-2.600100494286985,Na16Fe8P8O32F8,mp-1194940
2.882000000000001,-2.9166227126793984,Ba8In8Si12S4O40,mp-1194952
2.3823,-0.8314071710752696,Sn8H88S24N16O12,mp-1195064
4.492699999999999,-2.9538238657460103,Ba22B52P4H12O116,mp-1195112
3.2532,-2.754152804953703,Sr4Cd4B8O20,mp-1195626
5.600899999999998,-2.109601593930357,K4P8H20O32,mp-1197171
2.4712,-2.5525007815608483,Fe4B2P6O24,mp-1197728
5.202999999999999,-3.4518524066683622,Cs1Nb1F6,mp-11980
2.8542,-1.6069629662594709,In16Se16O56,mp-1199125
3.8272,-1.5504332442514293,Ca6C12N12O12,mp-1200920
1.0088,-1.2538992100257356,K36Fe4S28,mp-1201533
1.7243,-0.9767915485923266,Ga4Hg11P4Cl16,mp-1203087
3.715,-1.9222478022878768,Mn6P8H24N4O32,mp-1204413
3.0331,-2.0866692951388894,Ba12Ga4S16Br4,mp-1204726
5.535500000000001,-0.4927865705719995,Al8B24H240N48,mp-1205240
1.8062000000000005,-0.5803723159999997,Tl2Sn2I6,mp-1205533
4.6207,-3.151955413014,K1Sc1Tl2F6,mp-1205684
3.3774,-3.60154648825,Ba2Dy1Ta1O6,mp-1206435
0.02059999999999995,-0.3086440976415093,Y12Ta8Al86,mp-1207857
0.02389999999999981,-0.6119291070833336,Tb16Cd4Pt4,mp-1208468
1.9703,-1.4944511124881037,Rb2Sb2Cl12,mp-1209179
1.8816,-1.2672865462189409,Rb6Ta4As2S22,mp-1209358
4.6427,-2.9866312382371567,Rb3Tm1P2O8,mp-1209420
5.0178,-2.4821828925594485,Rb12Dy4Cl24,mp-1209428
3.4684,-2.742106626438851,Rb4Mo2O4F8,mp-1209465
5.7427,-4.174152350399285,Nd2Zr4F22,mp-1209872
1.356,-3.0102136930208325,Nd8S8O8,mp-1209906
4.6879,-3.3862079533420015,Na8Ca4Zr4Si8O28F8,mp-1210579
0.023699999999999832,-0.5171042807954552,Tb12Ga60Ru16,mp-1210802
6.0431,-4.269603918981111,La2Zr2F14,mp-1211385
2.1861999999999995,-2.146905648437501,La8S8I8,mp-1211464
3.0978,-2.7980508925,Li12Lu12Te8O48,mp-1211646
1.2263,-1.1275590478990227,K6Ti4P10S36,mp-1211873
0.03329999999999966,-1.2685176557142863,Dy4P4Pd4,mp-1212811
4.7178,-2.6560537042672414,Cs1Er1W2O8,mp-1213193
3.6355,-2.6351874276005742,Cs2Tb2Mo4O16,mp-1213293
3.3031,-1.8487719255328567,As6Pb10O24F2,mp-1214667
2.5536000000000003,-1.6694213321121592,As4Se4Br12F24,mp-1214921
4.2159,-3.0366567612263653,Zr8P8S4O48,mp-1215926
3.0383,-2.7294996610535724,Ta2Bi2P8O28,mp-1218131
1.1993999999999998,-2.755629155596,Sr2La2Mn2Fe2O12,mp-1218252
1.4727,-1.9161378061944452,Sm12Sn1Ge4S28,mp-1219381
1.4598,-1.3595924361465217,Na1Al6Sb7Te8Cl24,mp-1220960
2.9665000000000004,-3.081409154225,Na1Ca1Mg1Fe1Si4O12,mp-1221075
3.814,-2.6250217652629413,Na4Nd8N2Cl18O2,mp-1221346
2.1922,-0.8090004042721862,Mg2Ag4P4S12,mp-1222065
4.4989,-2.111795442388787,Li2Ga2B2H6O10,mp-1222409
1.5294,-2.59667758474,K1Mg1Mn2Al1Ge3O10F2,mp-1223590
1.7729,-3.015468713149656,Cs2Mg2Co2F12,mp-1225938
2.2932,-2.448767619010592,Cs3Rb5Mo12P12O68,mp-1226988
0.15910000000000046,-0.0033914574999993623,Bi1Sb1,mp-1227290
2.7305,-3.1180064271052634,Ba4Nb2W1O12,mp-1228131
0.053399999999999885,-1.1334647737500012,Al1Cr4Cu1S8,mp-1228960
0.5392999999999999,-2.1837248343750004,Sm4S8,mp-1232280
1.5531999999999997,-1.0727021252011495,Cs2Er2Cd2Te6,mp-12488
2.1096,-1.6047041975937502,K32Sn8O24,mp-14988
3.4391,-3.2196287235833334,Ca12Si8Sn4O36,mp-15095
3.8561,-3.0654599234247617,Ca4Mn8Be12Si12O48,mp-15539
2.2898,-2.1954760196562497,K1Sm1S2,mp-15783
1.5373,-1.7033038567968752,Li1Y1Se2,mp-15794
2.4946,-3.3723968486523432,La16Si8S12O28,mp-15897
0.002699999999999925,-0.4320057294927536,Ce6Co58Si8B20,mp-16083
0.007800000000000473,-0.3924078241123193,Nd6Co58Si8B20,mp-16085
0.09810000000000052,-1.2226316400000006,Tb1Sb1Pt1,mp-16313
2.7368,-1.3154791964909176,Rb12P4S16,mp-16863
0.8439999999999999,-0.2739025686249996,K6Ge8Au2,mp-17112
0.7858,-1.5356271914285722,Ba4Ho8Te16,mp-17273
0.08139999999999993,-0.4017227934821425,Mn8Si4Se16,mp-17367
1.6563,-1.3785826861899997,Ca8V4N12,mp-17892
0.3868999999999998,-1.137613844322917,Ba3Cu6Sn3S12,mp-17954
1.5358,-1.5386301078654,Cs2Er4Cu6S10,mp-18540
5.2031,-3.6135223031477786,La4Sn4F28,mp-18566
3.7948,-2.678794498987069,Rb2La2W4O16,mp-18605
3.2660000000000005,-1.7399771181770844,Ni2S2O8,mp-18749
1.7786000000000004,-2.711492048690476,V2P2O8,mp-18835
2.5477,-2.9732401352499997,Sr4Ca2Mo2O12,mp-19116
1.0902999999999996,-2.67146902914625,Er4Mn8O20,mp-19345
3.3680000000000003,-2.53889099725,Sr2Ni1W1O6,mp-19400
0.015300000000000313,-0.6051876716666668,Ba8Sn4,mp-1981
0.027899999999999814,-0.7294381066666666,Gd2Rh4,mp-20084
0.015100000000000337,-0.2232699128571432,Ni3Sn4,mp-20174
2.9091,-1.4757008539687504,Pb2Se2O6,mp-20716
2.8765,-1.8062152933333333,Ni2W2O8,mp-21179
1.9741,-2.6796642757525504,Ca4V4Ni4P8O36,mp-21646
0.017199999999999882,-0.33326293999999995,Gd1Sn6Ru4,mp-21869
3.6194000000000006,-2.178318761670417,Mn2S2O8,mp-22554
1.2311000000000003,-1.5426863555066663,V1Cl2,mp-22877
1.254,-1.6856846711388505,Rb2Pb1Cl6,mp-23475
0.5781999999999999,-1.7959188474415326,Cs8Bi2Sb2Cl24,mp-23583
4.9921,-1.4756170696663893,Ni4H56S4O44,mp-23877
1.7978,-0.9165326578400004,H8Pt1N2Cl6,mp-24227
5.5778,-2.249960216172857,Li4P4H8O16,mp-24610
3.4262,-0.3067118075046647,Rb8Mg6H20,mp-24662
3.155,-2.5494822518080364,Li2Fe4P6O20,mp-27007
0.12380000000000012,-0.326955601666666,Co4As8,mp-2715
2.0378,-3.1792525038393102,Cs4V2F12,mp-27239
1.2017,-0.9984496717777778,K2Pt1Br6,mp-27691
0.7828999999999999,-1.1441700031080004,Tc8Cl32,mp-27780
2.0826,-2.1706441735807407,K2Ti1Cl6,mp-27839
3.478800000000001,-1.9322899976171881,Ca8Se16O40,mp-27845
0.5470000000000002,-0.7742156867432948,Rb2Pt1I6,mp-28110
0.20440000000000014,-1.3578615553757143,K6N2O6,mp-28111
0.9991,-0.4576737071874999,Hg8I4O4,mp-28136
1.1092,-0.9380163818750002,Zr2Te4Br10,mp-28671
1.1259,-1.6965916008090278,K4Ti2S6,mp-28766
1.7571,-0.2127764057500002,Br16O24,mp-28933
2.0675,-0.9516399978258926,K12Bi4Se12,mp-28980
4.2305,-2.60222441125,Tl4B12O20,mp-29155
2.6752,-1.8819894985795464,Ba6Ga4S12,mp-29302
0.4892000000000001,-0.8247145565024628,Rb6Os4Br18,mp-30167
3.9208,-2.370672653180804,Er4Se6O18,mp-31352
2.7623,-2.848947149166667,Ta4Ni2O12,mp-32308
2.329,-2.00284180125,Li20Zn8O18,mp-3297
6.9245,-3.9852163873766666,Na2Y2F8,mp-34081
1.2622999999999998,-2.0202129668038102,Mn2In4O8,mp-35162
0.7506000000000004,-1.242060083046875,Nd4Cu4Se8,mp-3739
3.7594,-3.1685683562708333,Ba60B48O132,mp-3974
5.177300000000002,-1.9000968510799991,Si1Ni1H12O6F6,mp-40144
3.6344,-3.3450837766098487,Ca6Er6Ge4B2O26,mp-41109
3.1434999999999995,-1.3977017020312503,Be1S1,mp-422
3.6361,-1.8086994727547727,Rb8Se4O16,mp-4618
3.741,-3.932899853750001,La4Zr4O14,mp-4974
0.13809999999999967,-0.7131124469726169,Rb12Ti12Te44,mp-505639
3.4146,-2.6263190756106334,Cs24Si12O36,mp-505734
3.116,-2.5478592781818183,Zr1Mo2O8,mp-510456
2.3851,-1.8018469139354545,K8Cr4H8Cl20O4,mp-510467
4.0097000000000005,-3.7398846308333327,Y2Ta2O8,mp-5377
2.7453000000000003,-2.431454801190477,Fe4P4O16,mp-540111
1.7061,-1.8758357729612496,Cd8As4O16F4,mp-541677
0.8906000000000001,-0.4173345284365079,K8Na12Si4P12,mp-541694
0.05600000000000005,-0.7264557308333337,Sc4Fe2B4Rh10,mp-542023
2.6358,-2.643467220735294,Ba3Zn6Si4Te1O20,mp-543034
4.9268,-3.3729543136904763,Ba1Hf1P2O8,mp-545548
0.10780000000000013,-1.4504222725833338,Ag2Sb2O6,mp-545999
3.0242000000000004,-3.4068658650000003,Ba2La1Nb1O6,mp-553281
2.7387,-1.5813539304700004,Te4Br4O12F20,mp-554523
2.5504,-3.0962794255739783,Ba4V2P4O18,mp-554810
2.7001,-1.7385351082984029,Rb4Cr4Cd2H8O20,mp-554838
0.3815,-1.0967666580729172,Ba1Ag2Sn1S4,mp-555166
1.5857,-1.8201351380693247,Cs4Au4S8O32,mp-555376
2.6729000000000003,-2.702445815296,Na2Tb2Mn2W2O12,mp-555494
3.747,-2.125965046538182,Sb4Te4Cl12F24,mp-555629
1.287,-2.8088955357986105,La12Cu4S12O8,mp-555681
3.2782,-1.9497548047894735,K8Ni8Mo12O48,mp-556279
2.8047,-2.1208697357060005,Nb4Cl12O4,mp-556422
1.6433,-0.9775198291388896,K4Sn2Au4S8,mp-557121
5.6317,-2.9270374764351854,Li8Al4B20O40,mp-557177
4.4497,-3.3744074909290007,Zr2Mn2Tl2F14,mp-557434
2.8046,-3.6652647737500015,Nd12Nb4O28,mp-557763
3.2222,-3.793669974642501,Hf1V1F6,mp-557938
2.8773,-2.2062786566083328,K8Mo4S8O40,mp-558124
4.1636000000000015,-2.1603004877548613,Mn15Pb3S18O72,mp-558292
4.0855,-2.9609084530314287,K4Sn1Sb2F14,mp-558309
2.4875000000000003,-1.6781306555638638,As4S4Br12F24,mp-558466
4.0674,-2.8333657918176787,Tb12Se8Cl4O32,mp-558490
1.5540000000000005,-2.1829065722625,La40Se56O4,mp-558535
4.3381,-2.4721566932758625,Cs4Ba4C6O18,mp-558539
2.0087,-2.456128471836081,V6Cd10P12O50,mp-558711
0.5927000000000002,-2.4028610081629997,Ca4Mn24Si4O48,mp-558986
1.9943,-1.0109403723706891,Rb4Ge4Bi4S16,mp-559227
4.6817,-3.4026331274375017,K4Ba4Y4Si8O28,mp-559670
4.0918,-2.561606456363793,Rb2Na10Be16O22,mp-560092
3.0863,-2.7656455464682543,Sr2Cr2Sn2P6O24,mp-560855
2.7730999999999995,-1.3159566983160715,Na4Sm4P8S24,mp-561232
2.3053,-3.02428543322304,Ba17Er16Zn8Pt4O57,mp-561249
1.4488,-1.8086177763437492,K2Au2S4O16,mp-561454
2.5763,-1.4881565779483694,Cr8Se24O60,mp-562099
0.7853999999999992,-0.43301740090909,Mn16Si28,mp-568121
0.008600000000000385,-0.1824060321857138,Na30Sn2Ge16P2,mp-569991
0.9912,-0.4981884797175927,K24Pd4Se80,mp-570241
0.7348999999999997,-0.2664728949999997,Ga12Os4,mp-570844
3.4182999999999995,-2.932348133321019,Cs4Gd4P16O48,mp-573001
0.00029999999999974486,-1.1955237035641162,Cs4Nb12S4Br28,mp-573274
0.07500000000000018,-0.20448442764705904,Bi8Te9,mp-580062
2.274,-3.175884455466056,Cs8Ca16Nb24O80,mp-581330
1.7518999999999996,-0.7035353131944445,Tl16Sn4S16,mp-5818
1.8309,-0.8973424340798184,Cs12P4Se16,mp-583193
1.3699000000000003,-0.9303154294062504,Na4As4S8,mp-5942
0.2524,-1.9113370515196129,Cs2Pd4F10,mp-5972
4.4910000000000005,-1.9258074257078164,Cs4Ga4Cl16,mp-608516
1.9759,-1.910820406467015,La6Ag2Ge2S14,mp-617632
1.1617000000000002,-1.542857837612069,K4Zr6C1Br18,mp-627575
1.0512,-0.5293267322710132,Rb4Hg4Sb4Se12,mp-6300
1.7163,-1.8264540224938424,Cs4Gd4Si4S16,mp-630711
6.6578,-3.5960936097572733,Na4Mg2Al2F14,mp-6319
1.8647,-2.743035233821429,Li12V8P12O48,mp-6396
2.3593999999999995,-1.84022980296875,Tl4V4Te4O20,mp-639714
4.5062,-2.6038922248122223,Al2H4Pb2O4F6,mp-643387
0.9068,-0.9991494162704084,K4Ni4P4S16,mp-662530
3.0104999999999995,-2.356971009251429,Ba4Si8N8O8,mp-6764
6.6663999999999985,-2.529925904086207,Rb2H2F4,mp-677103
1.568,-1.2215401216366668,Zr8N48O136,mp-680356
3.2076,-1.3916827854253837,Ho8Si16C4N24,mp-6825
6.101800000000001,-1.6906261409003571,H4S2O8,mp-690733
4.9365000000000006,-0.27681865916333354,K4Ga4H16,mp-696983
4.774,-1.0891426379999998,Mg2H12N4Cl4,mp-697168
3.0981,-2.186150081245789,Pr16Si16N28Cl4O12,mp-699390
3.2451,-2.4799025137419446,Mn2Si12Pb16O42,mp-699587
3.7072,-2.0708650668627446,In16Mo24O96,mp-705134
2.8565,-0.7750247424999999,Bi4Br12,mp-752602
1.1016000000000004,-2.7748510735833336,Ti2Sn2O6,mp-754246
1.9579,-2.472175735625,Li4V3Cr1O8,mp-754324
1.4925,-1.9173122502016668,Na4Mn2O6,mp-755874
3.1663,-2.0855324074342105,Ba4As12O22,mp-757280
1.192,-1.3515395324333577,Rb4Ti4P4S20,mp-758985
0.8482000000000003,-1.681159269204545,Na5Bi1O5,mp-760400
0.7551000000000001,-0.4682725100138896,Si4Ag32S24,mp-7614
2.0681,-2.541015939201681,Cr1P6W3O24,mp-775489
0.2563999999999997,-0.6697046100000001,Sr1Zn2As2,mp-7770
0.1423000000000001,-0.9898408314988236,Mn4N16O48,mp-780939
5.1459,-1.415132674315,Be4Si4N8,mp-7913
1.1111,-0.9443306257019998,Ca24N16,mp-844
1.1709,-0.3730863533333335,Ag1Br1,mp-866291
4.0585,-3.3315788557577783,Ba4Y2B4Cl2O12,mp-866310
3.3991,-3.003650358348485,K2Zr1B2O6,mp-8891
0.020099999999999785,-0.3017710385600252,Cs4Ag20Te12,mp-9206
0.4988000000000001,-0.6842179050000006,Zr1Ni1Sn1,mp-924129
1.1449000000000005,-1.065757444375001,Tc4S8,mp-9481
0.6211000000000002,-2.356760332547778,Pr6Ir1Cl11,mp-975605
2.1932,-2.057522381875,Sr1Hg1O2,mp-978857
1.1833,-2.0481178181599997,Na3Mn2Sb1O6,mp-985626
3.0737,-1.8570335364749653,Rb2Na1Sb1Cl6,mp-989545
0.029300000000000107,-0.7531998850000002,Ba2Cu2As2,mp-9898
1.7725,-2.330509297857143,Ca4Fe8O16,mvc-12043
3.7362,-2.596406583908333,Sb4F20,mvc-3453
4.0844,-2.6690099099128948,Rb8Ge4B16O36,mp-1020707
1.4073000000000002,-1.9043770400601396,Y4Se3N2,mp-1029349
2.9433,-1.2553838361900005,Mg4Ta2N6,mp-1029442
1.9199,-0.9214187478387076,Rb16Nb16N32,mp-1029493
1.0920999999999998,-0.4395068930155552,Li24In8N16,mp-1029562
0.9426,-1.0961806955022222,Sr8Zr2N8,mp-1029580
1.1724000000000006,-0.8916865321688887,Ca8Sn2N8,mp-1029681
1.7922000000000002,-2.6927668834090923,Ca8Pd2O12,mp-10299
0.05659999999999954,-1.8563450229375007,La4Cr4S12,mp-10328
6.991199999999999,-3.4439738403144062,Rb2Si1F6,mp-10492
4.9695,-3.1819632387870835,Ba2Ga2B2O6F4,mp-10509
1.8306,-1.9012425805000002,K6Sb2O8,mp-10543
2.6745,-1.5664524984314288,Cd1Pb2Cl2O2,mp-1077904
5.1069,-3.4158078296425,Li1Nb1F6,mp-1078799
5.0514,-2.494227241247379,Cs2K1Sm1Cl6,mp-1079871
2.3567000000000005,-2.135825492332975,Cs2Lu2S4,mp-1087532
1.7195,-1.6130179758246532,Ba2La2Ag2Se6,mp-1101818
0.3060999999999998,-1.7870146105208338,Dy4As4S4,mp-1102052
1.0045000000000002,-0.8907474442968747,Hf2Tl4Se6,mp-1102545
0.1227999999999998,-1.0071042133333326,Zr4Si4Pd4,mp-1103414
1.0648999999999995,-1.8083983123214296,Eu2Al4S8,mp-1103889
1.5481000000000005,-0.6449734408348213,Sm2Tl2P4Se12,mp-1105449
0.016899999999999967,-2.4432927500941,Cs2Cu3Sn1F12,mp-1106088
4.2142,-2.4207773691081997,Cs2Hf1Cl6,mp-1120741
0.07790000000000008,-0.010442112533333254,Mg149Fe1,mp-1185592
2.0946,-2.1277695169375,Ho6Ga2S12,mp-1189051
1.6058000000000003,-0.8839995226562505,Zn2Cu4Si2S8,mp-1189702
2.5528,-2.127759007386365,Ba2Cd2As4O14,mp-1190335
1.5658000000000003,-1.5437401455926725,Cs2Dy4Cu6S10,mp-1190785
0.3362999999999996,-1.112237819915449,Ag10P2Se2O8,mp-1191916
1.9143,-2.583865714285713,Dy4Mo4Br4O16,mp-1192462
2.125,-0.9117319584821424,Mg8Si4Se16,mp-1192582
3.2883,-1.6964202905469241,Li2As4H6O14,mp-1192746
5.3519000000000005,-2.165568949350542,Cs8Be4Cl16,mp-1193604
2.3174,-1.9925171300000004,Sr2Co4As4O16,mp-1193940
2.3043,-2.440196588857142,Na8Sr4V8Co4O32,mp-1195067
1.4672,-0.7197785272259851,Cs8Mg4Ge12Se32,mp-1195667
0.3450000000000002,-1.3312332844440742,Ag4Au4F28,mp-1196161
2.903,-2.546796089366884,Sr2Co6P8O28,mp-1196626
3.3295,-2.543822552500001,Sr16As16O56,mp-1196745
3.6856,-1.4322054356937604,Rb48Zn24Br96,mp-1196780
5.2432,-3.305306820555476,Ba8P8O24F8,mp-1197491
3.0437000000000003,-2.5361248587009504,Cs8Ba2V12O36,mp-1198646
3.7461,-2.7962258484079654,Rb16Sn16F48,mp-1198796
3.1356,-1.5574721758376917,Nd8N24O72,mp-1199401
0.06059999999999999,-1.2945688659562635,K12In6H24N32O108,mp-1199428
2.0969,-0.7644565199450551,Tl24Bi24P32S128,mp-1200066
2.2584,-1.5635794482925007,Fe4Te12Cl4O28,mp-1201019
0.16129999999999978,-2.825019468410716,Ce4P20O56,mp-1201068
0.05850000000000044,-0.14451789782608693,Mg6Al36Mo4,mp-1201475
2.3292,-1.6628593625347232,Ba8Ga4Bi4S20,mp-1201906
3.0637,-2.507788269910714,Lu12Te18O54,mp-1202045
2.3401,-1.4337248888043483,La4V4I20O64,mp-1202389
3.3704,-1.3907030008195551,Mg2Cd1H24Br6O12,mp-1203195
4.4328,-3.15053555088602,Na12Li4Y12P12C4O60F8,mp-1205167
0.0005999999999999339,-0.7016015762499999,Tb12Pt4,mp-1208453
0.17980000000000018,-0.5304298819140625,Ta12Se48I4,mp-1208533
2.3002,-0.8282858429064892,Rb8Si8Se20,mp-1209497
3.6622,-2.7088834894117646,Pr4Mo6O24,mp-1209807
0.9935,-0.8743882478333335,Na4Fe4Br16,mp-1210192
0.3064999999999998,-0.7195731907727272,Na6Sr6Ga2Sb8,mp-1210275
0.045900000000000496,-0.29324044999999976,Lu12Al86V8,mp-1210969
3.1762,-2.795742968500001,Li12Ho12Te8O48,mp-1211542
0.6514,-1.7548633291092854,Li6Mn4Se8O24,mp-1211552
0.00109999999999999,-2.3052467615219783,K4Co8P8O32,mp-1211872
4.0767000000000015,-1.9230019728397736,K4P2H6Se2O16,mp-1211877
2.5502,-2.5304820002875,K8Gd4Cl20,mp-1212034
0.8677000000000001,-2.6122285147499995,Ho4Rh4O12,mp-1212108
4.0113,-2.662452025517241,Cs1Lu1Mo2O8,mp-1213076
3.4707,-2.6419617903089083,Cs2Nd2W4O16,mp-1213150
2.1224,-2.6762450534715785,Y4Mn2Ge8O24,mp-1216376
0.26180000000000003,-2.9727225979281817,Tb4Mn2Sb2O14,mp-1217713
2.701,-3.1202474910326856,Rb4Ti4Nb4O20,mp-1219566
3.1465,-2.231353966366966,Rb8Mn2Mo6O24,mp-1219695
0.21260000000000007,-0.15701071764367847,Rb8Sn42Hg4,mp-1219835
1.1876000000000002,-1.3333914300135874,Nd6Ge3Se14,mp-1220273
1.7153,-2.4387485171428582,Mg2Cr2Fe2O8,mp-1222047
3.0272,-2.03234357375,Li2Ge1Te1O6,mp-1222711
4.6329,-2.6444184753040294,K2B2P4Pb2O16,mp-1223679
0.4203000000000001,-0.14989432414814774,K8Zn4Sn42,mp-1224111
2.6144000000000003,-2.1864537676341,Cs2Sb2W2O12,mp-1225944
4.1041,-3.3683926392874066,Ba6Mn2Zn1Cl6F12,mp-1228107
0.7132999999999998,-2.565364119120371,Ba12Pr4Co8O30,mp-1228751
0.4240999999999997,-0.7417570455468749,Ba2Cu4Sn2Se8,mp-12364
4.232799999999999,-4.065994049204547,La4Hf4O14,mp-12533
0.1651000000000007,-0.184117170625,Co4Sb12,mp-1317
3.8757,-2.215975076842106,Mg8Tl8Mo12O48,mp-13187
1.3513000000000002,-2.019079863697917,Sr2Lu2Cu2S6,mp-13189
2.3982,-2.598995428125,Pr1Cu1O2,mp-13694
2.1752,-3.2983703042187513,Nd2Se1O2,mp-13971
0.2844000000000002,-1.6855375828717676,Nd20Se38,mp-14650
2.5248,-1.3691565823645844,K4Ta2Ag2S8,mp-15216
0.3403999999999998,-1.8783132591562501,Tb8Se12,mp-15257
0.6443000000000003,-0.9446563024999998,Li4Ca4Sb4,mp-16264
6.8081999999999985,-3.7727065743062496,K8Y4F20,mp-17077
2.7986000000000004,-3.6221860000000015,Ba4Gd8O16,mp-17143
2.8788,-2.5672182982608702,Be6Cd8Si6Te2O24,mp-17167
0.6668,-3.1634289276330003,K4Hf4Pd4F28,mp-17429
3.5128,-2.8205838754241075,Al4Fe4P4O20,mp-17477
3.4751,-2.7705702009166666,Ca6Ge6O18,mp-17761
4.2542,-2.456117323912338,Zn4P8Pb4O28,mp-17924
3.2026,-3.6847388678571433,Ba4Tb8O16,mp-18258
3.7859,-2.7242278199450554,Ca2Zn4P4O16,mp-18308
1.1294,-0.4660020050833336,K14Nb2As8,mp-18361
2.7939999999999996,-1.8623156098706903,Rb4La4Si4S16,mp-18658
3.4730000000000003,-2.0332175501920005,Mn2C2O6,mp-18814
4.3941,-2.2148891284285708,Na4Mo2O8,mp-18852
3.2724,-3.0435266827499996,Ba2Ca1W1O6,mp-19182