band_gap,formation_energy_per_atom,full_formula,task_id
1.0657000000000003,-1.4704895457499996,Co18Te6O36,mp-645717
1.2227,-0.2563837283928572,P4Br28,mp-647343
3.9452,-2.8506002710000002,Na4Zn2Si6O16,mp-6481
1.4154,-1.526089887031251,Re4Hg8O20,mp-667291
2.459,-2.4870117622243586,K2Ba12Zn8Ga14O42,mp-677520
0.05629999999999935,-2.5402252543953803,La12Ti6Se18O10,mp-680312
3.6244,-1.5387704978655112,Rb4H4Se4O16,mp-696794
4.6065000000000005,-2.2582351953156903,Cs2H2I2F14,mp-699173
2.2497,-2.4228135234848764,K12Fe12P16H8O68,mp-720729
1.4666,-1.1385698457112072,Rb2Au2O4,mp-7472
2.0855,-2.6104777612789802,Li4V2P4H2O16,mp-754990
2.457,-2.13593870375,Li4Cd2Ge2O8,mp-7688
1.5483000000000002,-1.5173306202974142,Rb40Fe8O32,mp-768830
3.8849,-3.4289040400833337,La16Ga8O36,mp-769915
4.003,-3.7607031658333328,Dy2Ta2O8,mp-7703
1.9684,-1.1933708482507186,Rb2S1,mp-8041
0.4565000000000001,-1.08059789893319,Rb2Mo6S6,mp-8117
0.8287000000000004,-0.6885006488571428,Sr1Zn2P2,mp-8276
3.7065,-3.1110407339772737,Lu8Ge8O28,mp-8346
0.4301999999999999,-1.5462993463333332,K4Ir1O4,mp-8429
0.4743,-0.8603348337499996,Ba2Bi1Au1,mp-862947
3.3016,-1.722858912467058,Cs4Co2H24S4O28,mp-863299
0.05590000000000028,-0.3099019899999993,Ta1Ga1Fe2,mp-867507
2.8375000000000004,-2.9900307948775513,K6Gd2P4O16,mp-978099
4.9784,-2.7722938840606037,Rb1As1F6,mp-9819
1.2374,-2.0249836127083327,Hf1S2,mp-985829
0.4687000000000001,-0.5557508600868056,Ag4Ge2S6,mp-9900
1.1229,-1.5421869814100004,Ba2N1Cl1,mp-1018099
6.6792,-2.212752712323719,B2S2O9,mp-1019509
3.7754,-2.0361866828041664,K4Ge2S12O42,mp-1019775
4.003,-2.0160055901541662,Na8Ge4S24O84,mp-1020145
1.5933,-1.7101892662470937,Rb2Pd1Cl4,mp-1025201
2.9529,-0.9834345458775005,Ba1C1N2,mp-1029375
0.014999999999999682,-0.8785134228566669,Sr8Re4N12,mp-1029872
2.9256,-2.755748396545455,Na2Sr6Sb2O12,mp-10461
1.1591,-1.05590653630909,Sr20Nb4N20,mp-10577
0.9790000000000004,-3.0414111469999985,Ba2Nd1Mo1O6,mp-1078551
0.06010000000000025,-0.28358399375000065,La2Co2C4,mp-1078624
1.9873,-1.230842430627143,Na1Sr4B3N6,mp-10811
1.0488999999999995,-0.4491404283333343,Ta1Sn1Rh1,mp-1100408
0.5628000000000002,-1.0838390275000005,Yb12Gd4Sb12,mp-1100896
0.4430999999999994,-3.1993195105000014,Tm4Te2O4,mp-1101266
0.019599999999999614,-0.2866463901785709,Y2Al6C6,mp-1104050
0.017999999999999794,-0.6310660714285713,Li4La4Si6,mp-1104121
0.6239999999999997,-0.7787533940000003,Er6Sb8Au6,mp-1105695
0.8558999999999999,-1.8328496636000005,K4C4O12,mp-1106094
6.162999999999999,-3.551694718614,K3Sc1F6,mp-1111079
3.8877,-3.1573298733139996,K2Li1Cr1F6,mp-1111927
3.5277,-2.2058476738640467,Cs2Lu1Ag1Cl6,mp-1113542
3.2534,-2.9604131236425006,Na4V4F24,mp-1120731
1.9251,-3.0572742010714293,Li8Ti12Fe4O32,mp-1177863
3.8301,-2.8450722839439653,Cs4Hf2O6,mp-1178405
6.149299999999998,-2.7366291884481817,Y2B12H6O24,mp-1178731
1.5692,-0.9531566002898808,Rh12S12Cl60,mp-1179727
1.1102,-2.7548094988400003,Eu2Cl4,mp-1183892
0.7946,-0.27465217420258625,Cs6Pb8Au2,mp-1183951
1.8023,-0.7553087481034482,Cs2Hg1Te1,mp-1185537
0.2400000000000002,-1.892276530656251,Gd8Se12,mp-1188175
5.373100000000001,-2.774977200238,K3B6Cl1O10,mp-1189091
3.8134,-2.4194330636973795,Cs4Li2Sc2Cl12,mp-1189625
0.0036000000000000476,-0.26416256812500016,Dy12Os4,mp-1189887
4.6997,-2.625302889266879,Rb3Mg3C3O9F3,mp-1190296
2.2508,-2.422545830615205,Rb3V5O14,mp-1190911
0.021399999999999864,-1.9819479353645841,Nd4Eu4Cu4S12,mp-1191419
0.8596999999999997,-0.15250194285714258,Te14Ru2I12,mp-1192722
1.4377000000000002,-2.868275903027143,Ce4As4O16F4,mp-1193745
2.4763,-2.1643138364406656,Mn8Si2Te2Cl4O14,mp-1193890
1.4596999999999998,-1.361084957015962,Pd2Pb4Se4Cl4O12,mp-1194403
2.2501,-2.9472303012239998,La6V2H6O16,mp-1194534
1.1621,-0.867428900091106,Rb8Cu8Sb8S20,mp-1195291
4.0529,-1.5578978020501852,Na4Zn6H8Se8O28,mp-1195934
2.9229,-1.6735234041028149,Er6H40N8O49,mp-1196832
0.5336,-1.7118946072853334,Re8N16O32F64,mp-1198019
1.5175999999999998,-1.0816712849166676,Zr5Tl20S20,mp-1198156
2.3864,-2.1076469685961543,K4As4W8O36,mp-1198481
4.8180000000000005,-2.9123528289995835,Ba6B12H4O26,mp-1199009
4.4,-1.9062466880952376,Sb8S16O60,mp-1199191
2.8131,-1.740699120838815,Bi4Mo4Se4O26,mp-1200193
1.7144,-1.0438706788161942,Cs8Hf6Se28,mp-1200567
0.03200000000000003,-0.3182381399056603,Tb12Al86Mo8,mp-1201197
3.1402,-1.5573468402607686,Pr8N24O72,mp-1201377
4.675,-1.7113167473891948,Mg2Tl4H24S4O28,mp-1201988
3.4707,-2.3282645689928216,La4B20H20N4O56,mp-1202407
0.9256,-1.7660489042115382,Cs4H4Pt8S16O64,mp-1204209
3.5469000000000004,-1.692662523696464,Nd8H24Se28O80,mp-1204742
1.4550999999999998,-1.8454349413304207,Cs2Mn1Cl6,mp-1205772
0.2574000000000001,-0.27874403900000005,Zr6Zn23Ge1,mp-1207432
2.7207,-2.8944495639583336,Y12In8Ga12O48,mp-1207946
2.7869,-2.3306704838020837,Ti8Tl8As8O40,mp-1208295
3.9272,-2.9423413246814287,Sr4Mn4P8O28,mp-1208769
0.5125000000000002,-1.46501909203125,Sm4As4Se4,mp-1208883
3.8815,-2.4451168450287355,Rb1Al1Mo2O8,mp-1209248
0.017800000000000038,-3.4208559311424573,Rb8Eu4F20,mp-1209763
0.1826000000000008,-3.028194919196428,Pr6Re4O18,mp-1209784
2.1383,-3.1736542400000003,Pr12Sc8Fe12O48,mp-1209949
2.8068,-1.9399219753708337,Nd4In8Cl20,mp-1210010
5.1122999999999985,-2.131046890205333,Na6Mg1Cl8,mp-1210184
7.716,-4.423658243809166,Lu6F18,mp-1210818
3.5610000000000004,-2.6369366249999997,Li2Sc2W4O16,mp-1211126
4.055999999999999,-3.3573401025000007,La16As4Br4O32,mp-1211567
1.5282,-1.048402095025625,K5Zn4Sn5H4S17N1,mp-1211906
0.02639999999999976,-0.3283328441509435,Ho12Nb8Al86,mp-1212405
4.0299,-2.173546174527658,Cs1Ga1S2O8,mp-1213179
1.5929,-2.2491539896425,Dy4Au10F42,mp-1213210
0.6467999999999998,-1.1928628302845627,Cs6Nb12S2Br34,mp-1213734
0.9795000000000004,-2.779872946961428,Ba10Cr6O24F2,mp-1214531
4.4527,-1.2742063904414995,Y2H36Br6O36,mp-1216448
2.5763000000000003,-1.8734645703125008,Tl8Ge8Sb8O40,mp-1216957
1.4795999999999996,-0.8794332995312508,Sn1Pb4S5,mp-1218954
2.9231000000000003,-3.752771957234849,Nd16Ti16O56,mp-12193
2.648200000000001,-3.846587354695132,Pr12S6O4F16,mp-1219884
1.8698999999999997,-1.4880418464499996,Na1Bi3I2O4,mp-1220823
2.1086,-0.4447338334900912,Na12B36Se34,mp-1220895
5.0647,-2.3193986526670844,Na2S2O6F2,mp-1220908
0.6413000000000002,-3.315827511907896,La8Ti6S8O16,mp-1223217
4.0776,-2.8557175020563634,K1Mg3Ga1Si3H2O12,mp-1223547
1.3846999999999998,-0.914468226479167,K4Bi12S20,mp-1223584
2.7735,-3.0316494524387503,K8V4O4F16,mp-1224276
0.1933999999999996,-0.1426270574814818,K8Sn42Hg4,mp-1224491
2.5966000000000005,-1.904236812867648,Ga4Bi12Sb8O44,mp-1224998
1.1689999999999996,-0.2074219069531248,Dy2Si9B36C1,mp-1225372
1.9467,-2.8923674009274327,Cs2Cr2Co2F12,mp-1225975
2.9483,-3.1369606814829885,Cs2Li1Cr3F12,mp-1226357
0.004100000000000215,-3.624961120462963,Ce4Ta4Ti4O24,mp-1226851
0.3635999999999999,-0.4156751798333331,Na2Zn2As2,mp-13097
0.23609999999999956,-0.15268033499999945,Mg2Si1,mp-1367
5.379,-2.8468040975357165,Sm4P20O56,mp-13753
6.6345,-3.6722172508699615,Rb2Zr1F6,mp-13946
5.6252,-2.5082404122203963,Li8Mg8S12O48,mp-14646
2.6874,-0.8007273292968753,Be1Se1,mp-1541
0.9261999999999996,-2.4967994341666664,Ba4Li1Cu1C2O10,mp-15472
0.5350999999999999,-0.3927758725138891,Ag32Sn4S24,mp-15645
2.2828,-2.168834847781251,K1Pr1S2,mp-15782
0.5599000000000001,-0.8286538357800526,Rb10Ti12Ag2Se54,mp-16001
0.8289999999999997,-1.2482755250000004,Ba8Mn4Te12,mp-16905
2.2374,-1.4153074665948278,Cs8W4S16,mp-17361
1.4433000000000002,-1.3474574230685759,Pr6Si2Ag2Se14,mp-17389
0.7979000000000003,-1.5547867507142854,Ba4Sm8Te16,mp-17786
1.4023,-0.6036269604965274,Na8Ge8Se20,mp-17964
3.935200000000001,-2.8779455483556253,Ba4La2C6O18F2,mp-18111
0.0013999999999994015,-0.8538250485064922,Nb14P8,mp-18254
2.4355,-0.7308535652187499,Na8Si8Se20,mp-18562
2.6078,-3.35297681326172,Sm8Si4Se4O16,mp-18610
2.4572000000000003,-2.2932412156590924,K4W4O14,mp-19037
1.7550000000000003,-2.7886781758460004,Y4Mn2Ni2O12,mp-19192
0.9979999999999992,-3.2885331862500014,La4V4O12,mp-19350
0.034800000000000615,-0.5701622633333336,Zr4Mn4Ge4,mp-20059
0.8625999999999999,-1.8573611196425,Rh2F6,mp-2068
1.7706,-1.5848181817500004,K4Pb4O6,mp-20694
0.06790000000000007,-2.824590167916666,K2Na2Eu2Nb2O10,mp-20737
0.2645,-0.5634649721822219,Sr12Cu12N12,mp-21609
1.4685999999999997,-2.9215865721811207,Sr4V8P8O36,mp-21614
1.4079999999999997,-1.9634496021428576,Fe4Ge2O8,mp-22421
4.766400000000001,-3.4770217131700014,Nd2Cl2O2,mp-23058
4.3491,-2.742701731195,Pr2Cl6,mp-23211
3.8285,-0.5306924866666667,B2Br6,mp-23225
0.5622,-1.6688093055527269,Al4Cu2Cl16,mp-23434
4.0513,-2.6539469188260867,Na8Ga6Si6Br2O24,mp-23659
4.0057,-1.8403822191233332,Li2H2O2,mp-23856
3.1178,-1.6419978695781816,Gd2H24Cl6O12,mp-23989
2.8747,-0.5331296560486121,H4S28N4,mp-24290
4.8968,-3.2196153391812503,Be8Tl4F20,mp-27187
1.0629999999999995,-0.8479593945454547,Ba4Ag24O16,mp-27286
2.2139,-1.795493614108199,Cs2Ge1Cl6,mp-27882
1.4532000000000005,-1.5942697782500002,K8Pb8O16,mp-28574
0.7239,-0.3936791068069856,K6Au2Se26,mp-28606
1.0387,-0.5807721117135412,Na4Pt8Se12,mp-28987
0.14460000000000006,-1.6528735472499996,Li8Bi8O24,mp-29077
0.3967999999999998,-0.6002091180000001,Ba1Mg2Bi2,mp-29209
1.5714,-0.569133880277778,In4Te4Br4,mp-29236
0.9106,-0.32712398942672394,Rb6As2Se32,mp-29501
0.7374,-0.4439930549999997,Li2Au2I8,mp-29520
2.9649,-1.7445543103560537,Rb8Ag4Cl12,mp-29693
2.8237,-1.8380697674388893,Ta6Cl30,mp-29831
4.4044,-1.9915470542413796,Cs1Ca1Br3,mp-30056
3.1413,-1.8314489813159232,Cs3As5O9,mp-30300
1.3168,-0.36313083424107134,Hg12Se8Br8,mp-31075
0.3131000000000004,-0.8136418755172412,Sr11Cd6Sb12,mp-3195
3.4658,-3.209982842073529,Na4Ta8O22,mp-3285
4.9943,-2.36826043817888,Rb8S4O16,mp-3372
5.3864,-1.2349177875739996,H3Cl1O1,mp-34078
3.4759,-2.7361217035714285,Al4Ni2O8,mp-37614
0.5246000000000004,-0.18068898000000005,Cr2Si2Te6,mp-3779
4.4256,-2.7196944595,Sr4C4O12,mp-3822
3.0647,-1.572991354107143,Mg4Al8S16,mp-3872
3.7142,-1.6743067949733341,Sr4N8O24,mp-4157
1.4261,-0.20038223357142826,Cd2Si2P4,mp-4666
0.0008999999999996787,-0.059983777499999835,Zn2Sn2Sb4,mp-4756
2.370000000000001,-2.2884314704340283,Ni6B14I2O26,mp-504714
2.1790000000000003,-1.7689307833214283,K4Na8Fe4O12,mp-504863
2.3988,-1.0213636817708334,In6Ga6S18,mp-504951
0.5128,-1.7260867748785225,Rb8Mn4O16,mp-505209
4.4269,-2.89558721671,K8Sb8F32,mp-5079
0.4079999999999995,-0.3522976538476561,Co8Ge12Se12,mp-5094
5.2395,-2.1145615492686844,K8Be4H16S8O40,mp-510545
2.384,-0.6112941081249998,Sb1S24I3,mp-540656
4.0752,-2.5853071252891158,Cd4Si2P8O28,mp-541108
0.8004,-0.2608532270000001,Te2Au2Br16,mp-541134
2.7202,-2.332885788426725,Cs4Co2Si2O8,mp-542168
4.5046,-3.250693304651305,K2Ca18Mn2P14O56,mp-554043
1.6761999999999997,-1.851166593411459,Nd6Cu2Ge2S14,mp-554150
5.2489,-2.855352989660715,Dy4P20O56,mp-554583
1.5299,-2.4451939457857157,V4Ni2P4O20,mp-554784
1.5944999999999996,-2.1006472804356067,Ba8Sc24Ag8S48,mp-554796
2.2525,-1.5539294606702858,Sb4P4Cl24O8,mp-554847
1.7245999999999997,-1.8033888844531256,Er6Cu2Ge2S14,mp-555081
1.4990000000000006,-0.4232678542410712,Ag12Sb4S12,mp-555269
1.694,-2.947364898238749,Na8Mn4F20,mp-555618
3.4609,-2.782948954626916,Rb2Na2Ti2O6,mp-556185
2.611800000000001,-2.0330391363042857,La6Si4S16Cl2,mp-556246
0.1728000000000005,-2.9173570158333333,Nb8O16,mp-557057
4.2682,-2.8292829721174835,Rb4Sb8F28,mp-557260
3.9536,-2.8553134602947634,Ca10As6O24F2,mp-557482
2.2966,-2.515218766261905,K8V16P8O64,mp-557947
1.8523,-2.9501968792866657,Li2Mn2F8,mp-558059
3.8292,-2.5054232191632653,Na4Zn4P4O16,mp-558237
3.1505,-3.5302043695192307,Pr2Ta6O18,mp-558248
2.0907,-1.7063187377894735,K17Fe5O16,mp-558482
4.3399,-2.511959793433958,Tm4Se4Cl4O12,mp-558516
2.7094,-1.2764710496946663,K4Pt2N6Cl6O12,mp-558532
3.5009,-3.497500864230769,Nd16Ge4O32,mp-559014
0.5722,-1.1747368631517403,Rb6Nb12S2Br34,mp-559037
4.3828000000000005,-3.6201094068399984,Nd12Si8Cl4O32,mp-559764
4.0801,-2.7078989869919328,Sb8P4O4F52,mp-561176
2.7667,-2.5911635441075007,Dy4S4Cl4,mp-561307
2.8305,-1.5906975206575005,Al4Bi4S4Cl16,mp-561350
1.9694,-1.5301631337060002,Ga4Re4Cl24O8,mp-561379
4.9422000000000015,-2.277795403821448,K8Mn8S12O48,mp-561539
2.1243000000000003,-2.66198785075538,Cs2K1Rh1F6,mp-561561
2.6373,-1.5332620516369044,Li4Co6Se8O24,mp-562404
3.0066999999999995,-2.111156170092884,Ba4Co2Se4Cl4O12,mp-562762
2.9918,-2.3770937384489788,Na4Co4P4O16,mp-562796
0.014999999999999682,-2.7894242174661223,Ba9Sm6Cl34,mp-567646
0.07189999999999985,-0.14010389648275884,Cs4In6,mp-567752
3.3654,-1.346931655520833,Pr3Al9Br36,mp-567874
3.5819,-0.5380309129160707,P6N10,mp-567907
1.7887,-2.0917248452133332,Zr2N2Cl2,mp-568592
0.4924,-1.393284021796875,Gd1Tl1Se2,mp-569393
5.4006,-0.8622270126026779,Al8P8H64C16Cl32,mp-569751
2.9647,-0.6375421314999999,Ge8Br32,mp-571246
3.8337,-1.5034128396153337,In4Ga8Cl28,mp-571379
1.4859,-1.7282779280308622,Cs4Re4Cl16O8,mp-572546
1.4428,-1.0134922710416667,Re8S16,mp-572758
0.4777,-0.3483490024250003,Na32Sn16As32,mp-574684
3.3077,-1.4661222771944449,Na4Y4I16O48,mp-581868
0.9354000000000005,-0.4225498143570405,Cs40In24As32,mp-582182
5.9376,-4.1825986142745455,Ba8Zr4F32,mp-5900
0.2397,-0.14192320437500072,In12Ru4,mp-607450
4.0371000000000015,-2.7472034897527475,Ba4Zn8P8O32,mp-6089
0.8261999999999996,-0.3818401637260536,Cs20Ge4As12,mp-616141
1.8765,-1.9646386803166669,K8Fe8As8O36,mp-619092
2.7772,-1.628820374349047,In4H12O12,mp-626411
3.1043000000000003,-1.3785694288869228,Y8Si16C4N24,mp-6353
1.7439999999999998,-0.4716564165799995,Sr1Mg2Fe1H8,mp-643004
1.0476,-2.3178459177953568,Gd12S12N4,mp-647096
1.3728000000000002,-1.0895204479052198,Nb8P4S40,mp-648932
0.06430000000000025,-0.8029479951282048,Sr10In4Sb12,mp-649033
3.3241,-2.592413577326925,Na4Zn4Si4O14,mp-6507
3.0261,-2.206856432653684,K16Mn16Mo24O96,mp-651434
0.9773,-0.3266208317999997,Nb8Te34I8,mp-651961
0.3534000000000006,-1.2815116558418365,Eu4Tl4P4S16,mp-657233
1.4841999999999995,-2.507403610984849,Sr6In2Rh2O12,mp-669389
1.1162,-0.9723884295312496,Cd2S2,mp-672
4.3143,-2.5916876482129414,Na3Sm7Cl24,mp-673807
1.0735,-1.2114545742968748,Dy1Cu1Se2,mp-675349
0.5545,-0.15529119107142872,Bi72Ir16I24,mp-680182
2.3912,-2.3576687610615332,Cs2Ni1F6,mp-689925
4.4279,-2.15817400474375,K2H2I4F24,mp-695892
2.7574999999999994,-1.482143200889039,Na4Co8H4Se8O28,mp-697551
1.9716,-1.5221623627717424,Sb8S76F48,mp-723419
2.3409999999999997,-1.8476187346666664,K8Sn2O8,mp-7258
2.1241,-2.0162427373125,Na6Sb2O8,mp-7404
4.1385000000000005,-2.1178295395132687,Y4Ni4H12S4O28,mp-744434
2.8291,-2.9954027059267245,Cs2Ho2O4,mp-754154
1.5817999999999994,-3.3323220197500008,Tm4V4O12,mp-755258
1.5498999999999996,-2.4967589551136373,Er4Pt4O14,mp-756440
5.3849,-1.2257801919100006,Lu2H12Cl6O30,mp-757220
2.3798,-1.9581848832386364,Sn8S16O64,mp-759223
2.5935,-1.979587079834559,Sn4S6O24,mp-768950
1.913,-2.2213503376286763,V8S12O48,mp-770389
1.5873,-2.6312000728571427,V8Si4O16,mp-772047
0.13670000000000027,-0.6358367979999999,Sr1Cd2As2,mp-7771
0.4598,-0.4858985010000003,Na4As2Au2,mp-7773
5.7409,-3.036316266904445,Li4Ge2F12,mp-7791
3.8479,-2.5050793184099622,Rb4Li4Si2O8,mp-8449
1.9185,-1.6959954116718747,Na1Er1Se2,mp-8584
3.7267,-3.405742854741847,Ca4Al6S1O12,mp-8876
1.4632999999999994,-0.9010283653509852,Cs2Sb4S8,mp-8890
1.2715,-1.409954155125,K1Sm1Te2,mp-9036
2.2989999999999995,-1.1090242858397992,Rb4B4S12,mp-9047
6.0429,-4.515876214434167,La6F18,mp-905
2.6958999999999995,-2.3932220330555563,Ca1Sb2O6,mp-9125
3.4027,-3.0358766852040238,Cs2Ta2B4O12,mp-9309
2.3407,-1.0803286856116077,Na12Al4Se12,mp-9682
1.5912,-0.3571517586644776,Rb6B2P4,mp-9720
4.7024,-2.4874174038333337,Ho2H4Cl2O4,mp-976713
5.2645,-2.5227836518532385,Na4P6H2O18,mp-978284
1.0967000000000002,-0.4945845578171187,Rb2Sb4Se8,mp-9798
1.1383,-0.3746072166122448,K4Be1P2,mp-9872
2.2722,-0.7130386025,Tl4Ge4Br12,mp-998746
0.01909999999999989,-2.509471446354167,Ca6Fe4O14,mvc-3672
5.2623,-2.34029158765022,K12B4S12O48,mp-1019789
1.7805,-2.3386285159375,Ba4Te2O2,mp-1078191
3.7897,-3.118728565583333,Sr2Ta1In1O6,mp-1078748
0.2513999999999994,-0.9748005460116662,Ca2Ni2B2N2,mp-1079500
0.5869,-2.1410664877083345,Er4S8,mp-1101873
0.1023,-0.15791295081249976,Os1Se2Br12,mp-1104676
3.9764,-3.129150871375,K1Dy1O2,mp-1178141
5.9282,-2.12760314913,Li2Cl2,mp-1185319
1.0140000000000002,-2.4877129354375,Pr2Ho6S12,mp-1188730
2.853,-2.6659934560909093,Ba6Na2Sb2O12,mp-1190024
5.4191,-1.2379792892290906,Ba2Cl4O16,mp-1190390
0.4430000000000001,-0.7795355871904761,Ba8Li4Cd6P12,mp-1192527
0.979,-1.0664755921428568,Sr12Al4As12,mp-1192533
3.7154,-2.810475347289666,Na5Nd4Ge4O16F1,mp-1192544
2.7837,-1.295451765360577,Pb6Se4I4O12,mp-1193210
4.1953000000000005,-2.5435772355747126,Rb2Zr4As6O24,mp-1194730
2.5462,-1.9068092195241,Cs4Ba8Sn4S16Cl4,mp-1194731
0.012799999999999978,-3.0718303958785715,K8Yb4Si16O42,mp-1195357
2.0442,-1.8249027369791664,Ba64Sn32S120,mp-1195594
0.15250000000000008,-2.0046253376940006,K4Mn6As6O24,mp-1195778
1.1008,-0.817636839796875,K12As4Se16,mp-1197539
4.1427,-0.8831909879087485,Ba8Li4Al4C16N32,mp-1197768
1.8683,-0.9367001261781612,Cs2Au2I8O24,mp-1200560
4.4972,-2.4189804266119794,Na4B12Se4O28,mp-1202375
0.685,-0.3992791834881629,Zn4Te30H48N16,mp-1203875
0.12929999999999975,-1.581207652941177,Y6Co1Br10,mp-1205373
1.4198,-0.4450599228645835,Sb4Se4Br4,mp-1209072
6.5497,-4.275485147363572,Pr2Hf4F22,mp-1209557
1.7194000000000005,-2.4280095072500005,Pr4Ni2Pt2O12,mp-1209764
0.13450000000000004,-2.402394584023761,Na2Mn6Ag2P6O24,mp-1210177
0.07029999999999959,-1.0201572531249994,Lu10Sb2Pt4,mp-1210524
4.8399,-3.3285728856944443,Mg4Al12Si4B4O36,mp-1210669
6.2166,-4.298505528256428,La2Hf4F22,mp-1211227
3.679,-1.528794998723912,Li8Sm4N20O60,mp-1211322
3.6109,-2.6245983908749992,K4Tb4Mo8O32,mp-1211409
3.5569,-2.6253657660833327,K4Er4Mo8O32,mp-1211601
4.4613999999999985,-2.8630502010642864,K2Bi6F20,mp-1211670
0.016999999999999904,-2.211967095186087,K4Zr24N4Cl60,mp-1211782
0.8644000000000003,-0.6802070708125001,K16Zr12Te68,mp-1212265
3.1573,-2.3870711280555548,Dy2Ag2W4O16,mp-1212988
4.1734,-2.6062195159339083,Cs1Sc1W2O8,mp-1213157
0.9768,-1.1522419146618033,Cs2Pr2Nb12Br36,mp-1213382
0.5453999999999999,-1.3258906236646917,Cs2Er2Mn2Se6,mp-1213650
0.1513,-4.140477275577857,Ce2Zr4F22,mp-1213767
0.2167,-1.3273478962499998,Ce3Al9Br36,mp-1214275
2.189,-3.041323468280317,Ba4Fe4P4O16F8,mp-1214449
1.7475000000000005,-0.94209411515625,Ta1Nb1Cu6S8,mp-1217925
3.1794,-2.0338477078356005,Pr16Br26N6O2,mp-1219947
2.4116000000000004,-1.642014991346154,Pr4Si4Pb2S16,mp-1220007
0.4197,-1.6846805203325,Na1Cu2H3S2O10,mp-1221084
0.8112000000000004,-1.0718133353509616,Na4Eu1Si2Se6,mp-1221181
2.4523,-2.377246707816667,Na2Ti1Te1O6,mp-1221267
3.5064999999999995,-2.1295728045000004,Mg1Cd1C2O6,mp-1222080
3.3638,-2.3999042093839287,K1Na1P6Pb8O24,mp-1223429
0.7713999999999999,-2.4691837636975507,K6Mn8P10H6O40,mp-1224486
0.18009999999999993,-0.4829969804310346,K60Ga18As38,mp-1225940
3.0901,-2.265028175616775,Ca5Bi6Cl12O8,mp-1227157
1.4003,-0.6579396226891431,Cd4Hg26As16Cl24,mp-1227201
1.0764,-0.3068139492514881,Al1Ag1P2Se6,mp-1228964
2.8428000000000004,-1.963664633977272,Al3Tl4Fe1As8O28,mp-1229069
2.2632000000000003,-2.3776826357457987,Bi4Sb12P24O96,mp-1237522
1.9307,-0.8100321455357137,B12O2,mp-1346
3.9877,-2.6724129170138897,Cd8B32O56,mp-13603
3.2104,-3.6497926514772736,Gd8Si8O28,mp-13775
7.1223,-3.7654974830921835,Rb2Hf1F6,mp-13947
4.9436,-4.287837936646668,Tb2O2F2,mp-14093
1.7202000000000002,-1.6895678857083332,Na40In8O32,mp-14493
0.4299,-0.9082295080977616,Rb36Fe8Se28,mp-14892
3.7032,-3.434304542278571,Ba8Fe8F40,mp-14999
1.9875,-2.1881051682812505,Li1Ho1S2,mp-15790
0.4463000000000008,-0.6497022873949581,Ce1Fe4P12,mp-16272
0.6610999999999998,-0.2999317114285717,Ga2Hg1Te4,mp-16337
1.5301999999999998,-1.316959782439999,Sr8V4N12,mp-17012
1.9305,-1.0608326305446434,K8S20,mp-17146
0.15500000000000025,-1.714103408750001,Ca12Ge4O4,mp-17193
1.2622,-1.4733290678799729,Rb4Na8Co4O10,mp-18151
2.0868,-1.940255229114584,Ba8Cd4S12,mp-18309
2.2738000000000005,-2.4781818396875,Tm16S24,mp-18529
1.0496,-1.1293347697395837,Sr3Cu6Ge3S12,mp-18685
4.4381,-2.7074402271425004,Sb2F6,mp-1880
4.7521,-2.2229089934285717,Na4W2O8,mp-18803