band_gap,formation_energy_per_atom,full_formula,task_id
1.457,-0.3615394926034483,Rb48As112,mp-680413
1.3135000000000003,-2.878064320096001,Ca2La2Mn2Mo2O12,mp-684705
1.1198,-1.2006420156774424,Rb10Tc6S14,mp-685928
1.8545,-1.1147851867663638,Tl2H12N6O24,mp-696189
5.1708,-1.8085789356382864,P4H16N4O8F8,mp-706976
4.7723,-2.565774314645001,K8Si8H8O24,mp-707195
2.1097,-0.9828208356875004,K2Au2S2,mp-7077
3.2627,-2.4872079708144823,Sr20As20H4O72,mp-709350
4.9329,-2.938753964346668,K8Zr4Si12H8O40,mp-720643
1.3131000000000002,-0.8252979388964292,Li20Ge2P4Se24,mp-721239
0.4431000000000001,-0.8947083227760412,Hg9Se3O18,mp-754598
2.1005000000000003,-1.7167183683333331,Zn2Cr2O8,mp-755896
2.7291,-3.5250831631944437,Ba4Sc4O10,mp-755950
5.189699999999998,-3.048095493125,Li2Ca1Si1O4,mp-7610
5.7124,-2.194934839453769,Rb4P4H12O16F4,mp-761252
4.455100000000002,-1.938378569404376,La4H36S8O48,mp-762358
3.7685,-3.3199989069444453,Tb8W4O24,mp-771033
2.7401000000000004,-1.9928639944612077,Rb1Cr1O2,mp-771648
0.6284000000000001,-1.564430098214286,Li8Co16O32,mp-774082
2.8111999999999995,-2.3313971101785707,Li8Cr12Sb4O32,mp-775393
6.2686,-4.1512544421425,Ba2Zr2F12,mp-8232
2.0439000000000003,-2.023201034750001,Li4Sn2Te2O12,mp-8673
0.38899999999999935,-0.6320947483333335,Hf1Ni1Sn1,mp-924128
4.1087,-2.7398487871978574,K8Ga8P8O32F8,mp-9332
6.3243,-3.533489399618749,K2Al1F5,mp-9486
3.7834,-2.391621213715714,Nd2C1N2O2,mp-9498
1.2985000000000002,-0.6883610122991075,Tl4P2Au2S8,mp-9510
0.7693000000000003,-0.8622439597500005,Sm6Sb8Au6,mp-979979
0.6080999999999999,-2.7170519170692304,Ca2Fe4F20,mvc-10920
1.3546999999999998,-2.7402495506186657,Ca1Cr2F12,mvc-14383
6.3125,-3.1608127353227586,Cs1B3Pb1F12,mp-1004528
0.17270000000000008,-0.4287495193333332,K2Cd2As2,mp-1018736
7.7947,-0.3769710586460001,H4C1,mp-1021328
1.8392000000000004,-1.1380513036899995,Mg8V4N12,mp-1029368
0.09830000000000004,-1.6586441168830826,Rb1Ce1Se2,mp-10777
1.899,-1.7246123400080815,Rb1Sm1Se2,mp-10780
2.0456,-1.6937541418830817,Rb1Lu1Se2,mp-10785
0.7049000000000003,-0.8058698842375005,Na4Pd2Se4,mp-1078751
6.7895,-3.441779700232965,Rb2Na1Al1F6,mp-1079583
2.0392,-0.8779441776586541,Na4Mg1Ge2Se6,mp-1103730
4.2336,-1.8589736095413791,Cs2K1Pr1Br6,mp-1112754
3.6596,-2.195790130114046,Cs2Sm1Ag1Cl6,mp-1112939
0.005399999999999849,-0.1594406429166669,Nd1Cu5,mp-1140
1.9713,-1.3101699312954551,K12Zn2S8,mp-1147618
1.9438,-1.762725589083334,V4Ag4O12,mp-1178815
3.3378,-2.5603644287096334,Rb2Sn4P6O24,mp-1179711
1.2654999999999998,-0.6517950849999998,Ba4Ga8As8,mp-1183302
0.20029999999999992,-0.016340184177777627,Mg149Ti1,mp-1185639
0.38810000000000056,-0.7214818883333329,Hf1Sn1Pd1,mp-11869
1.6305,-0.3130848849699999,Zn8I4N4,mp-1188466
3.0044,-1.9974214784488644,Na2Nb2Se4O14,mp-1190450
0.3857000000000004,-1.4789057001490669,Cs4Eu4As4S12,mp-1190817
1.0921000000000003,-1.5634363442685717,Tb12Te12N4,mp-1192600
1.3929,-0.8297484746520932,Rb8W4Se16,mp-1192856
4.2636,-2.23988946901875,K4Y4Se8O24,mp-1194569
3.5253,-2.6751040865000006,Li4Sc4Ge8O24,mp-1194740
0.11990000000000035,-2.316572291139456,P24Ru8W16O120,mp-1194833
4.1273,-2.6572458979464293,Ba8Zn8Te4P8O44,mp-1195039
0.04720000000000002,-2.3936424759913932,Ag18P28O56F56,mp-1195618
1.7365000000000004,-0.1525227272812506,Na8P56,mp-1195785
1.3341,-1.9139875008041665,K8Pd4S24O84,mp-1195978
1.2856,-2.4444753167129627,Mg4Fe8B4O20,mp-1196909
4.019,-2.3622070177178855,Rb8Bi4P4W4O32,mp-1196931
3.8568,-2.3565250016091954,Rb8Zr1Mo6O24,mp-1197988
1.4015,-0.8438351819861111,K8Cd12Se16,mp-1198419
3.5856000000000003,-1.2679424907114634,K12Bi8N36O108,mp-1199040
0.013100000000000113,-0.2847799380985913,Lu26Zn116,mp-1199665
4.7707000000000015,-3.760514465282821,Ho16B4Cl4O28,mp-1201547
0.9470999999999998,-0.399632366109401,Cs24Ga8P16,mp-1201960
5.2002000000000015,-1.1605082829352629,Er2H4Cl6O26,mp-1202664
4.2323,-3.122654189710937,Na48Y16Si48O144,mp-1203085
1.7586,-0.5094149983924398,Zn4Te4H48Se12N16,mp-1203210
2.5282,-1.254223278929231,Ga8Hg12Cl32,mp-1203326
0.8948,-0.6774740695012502,N16O48,mp-1204579
2.3139,-2.2858977162083334,Na4Lu6Te8I6O24,mp-1204668
5.3052,-1.292692657037,Sr8H48Cl16O88,mp-1205011
2.8583,-0.6976081163022216,Ca2H6Os1,mp-1207196
2.1027,-2.921792786758889,Y4Pt4F28,mp-1207656
7.0863999999999985,-4.313788620517488,Rb2Tb6F20,mp-1209091
7.4994,-3.9151284469427594,Rb2Er2Be2F12,mp-1209268
4.997,-2.4814550810594485,Rb12Tb4Cl24,mp-1209455
3.5918,-2.7620481057201864,Rb12Ta12Ge12O60,mp-1209926
7.3269,-4.046443057418333,Na2Li2Ho4F16,mp-1210003
3.2219999999999995,-2.778270689375,Li12Y12Te8O48,mp-1211226
4.9416,-3.1698006307759754,K4Er4P8O28,mp-1211811
1.5638,-0.2157242454999997,K28Na4Ge32,mp-1211990
0.2840999999999996,-0.5968259566326529,Ho2Zn6P6,mp-1212366
3.2719000000000005,-3.4333463361250014,La12Lu8Ga12O48,mp-1212454
3.0177,-2.495573672500001,Gd2Tl2W4O16,mp-1212540
0.017300000000000537,-0.5091197888636365,Ho12Ga60Ru16,mp-1212628
3.7453,-3.21371879453125,Er4Al4Ge4O20,mp-1213112
3.2538,-2.4540208145833327,Er4Tl4Mo8O32,mp-1213125
3.5137,-2.9738054652500003,Ca12Al8Ge12O48,mp-1214222
0.028699999999999726,-2.6593675669166665,Ba6Ho2Ru4O18,mp-1214536
0.008700000000000041,-2.3907661137884606,Ba6Na6C10O30,mp-1214668
1.6755,-2.7522407956782757,Ba12Na4Mn4Nb4O34,mp-1214806
1.3040000000000005,-1.90040488875,Sn2Sb2Pb4O13,mp-1219056
1.6045000000000007,-2.907012880113637,Sm4Fe2Sb2O14,mp-1219197
2.1564,-2.304407118093871,Rb2Nb2Te2O12,mp-1219576
5.5407,-3.518525671901965,Rb4Ta2F14,mp-1219778
2.3961,-2.133777911794642,Nd18Al10S42,mp-1220699
1.5919999999999996,-1.4299928978645835,Lu2Cu2Pb2S6,mp-1222325
3.0491,-2.207764212153845,K2Ga2Ge6O16,mp-1223555
0.2557999999999998,-0.19035412875000104,Fe2Sb12Pd2,mp-1224896
1.8862,-2.6977328977499995,Ba3Sr1Mg2Te2O12,mp-1228054
1.1201,-2.9665006315896547,Cs2Mn2Fe2F12,mp-1228982
0.3960999999999997,-2.8656666042500003,Li2Sm4Os2O12,mp-12448
3.6089,-2.874575805833334,Ho2As2O8,mp-12944
3.9707,-2.5090235558585716,Dy2C1N2O2,mp-13038
0.016500000000000625,-1.1922347649999996,Er4As4Pd4,mp-13271
1.6653000000000002,-0.5265215312514876,Sc2Ag2P4Se12,mp-13383
6.4984,-3.614416868732965,Rb2Na1Er1F6,mp-13815
5.143599999999998,-3.0435618019829884,Cs8Na8Sn8F48,mp-14380
5.2252,-3.2693730745164706,Al8Pb12F48,mp-14941
0.4046000000000001,-0.32118749266071456,Na6P2,mp-1598
2.4581,-2.5272532509849124,Mn12Ag2P14O48,mp-16185
4.129,-2.6170346201279773,K8Zn4P8O28,mp-16695
0.12809999999999988,-0.7980708215000001,Sr16Sb24,mp-16897
5.0924000000000005,-3.6590639528409103,Sm8Si8O28,mp-17235
0.35939999999999994,-0.7192771382552081,Ba3Cu6Ge3Se12,mp-17252
5.1747,-3.3908658780357146,Mg6Be2Al16O32,mp-17313
3.7475,-3.2924903800353875,Ca10P6Se1O24,mp-17516
2.0276,-2.90086119,Sr6Sm2Rh2O12,mp-17829
1.8541,-0.3383061783187733,Rb4P4Se24,mp-17945
4.680199999999999,-2.821712497160447,Cs8Zn6F20,mp-17951
1.4081,-2.3265036699382144,Tb12S12N4,mp-18164
1.3035,-1.284823719477273,K12Mn2S8,mp-18244
1.8881,-0.8617154888258932,Na12Ge4Se12,mp-18411
1.1293999999999995,-1.4084056245785443,Cs4Ho12Te20,mp-18505
4.4698,-3.4436823571428574,Sr8Si4O16,mp-18510
2.0488,-3.237852301875,Nd8Si4Te4O16,mp-18542
0.24970000000000006,-2.8005045724999995,Dy2Cr2O8,mp-18754
4.3877,-2.2692211180000004,K4W2O8,mp-18780
3.3388,-2.6363263912500003,Sr4Cd2W2O12,mp-19014
1.9080000000000004,-1.8163300655000008,Na3Co2Sb1O6,mp-19087
2.8537000000000003,-2.628505442142857,Mg2Cr4O8,mp-19202
1.9838,-1.6573111380555559,Co1As2O6,mp-19292
2.636,-2.220446163199999,Na2Cr2Ge4O12,mp-21213
1.4657999999999998,-0.8005411001041665,In4Sb4S12,mp-21365
2.9525,-2.635713502614,Na4Co4F12,mp-21404
0.00649999999999995,-0.3461866324242422,Eu4In32Rh8,mp-21952
0.3886000000000001,-0.6046931853017243,Cs4Mn2Sn2Te8,mp-22235
3.3989000000000003,-2.2517356485918376,K4Ni4P4O16,mp-22655
2.0284,-0.3754470407499998,Sn8I32,mp-23182
1.0457999999999998,-2.0414750336666674,Eu10Br20,mp-23311
4.3596,-2.504525694683959,Ho4Se4Cl4O12,mp-23587
2.2246,-2.7184561143581814,K4V2H4O2F10,mp-23839
4.3023,-1.6429790472439585,Li4H4Se4O12,mp-23843
0.8667,-2.5164820624822166,Cs1Mn1P3H1O10,mp-23871
3.036,-1.6711825684765214,K4Co2H16C4O20,mp-24350
0.8435000000000006,-0.3258889155952384,Be8P16,mp-27148
3.8902,-2.409222070991667,Sb8I4F60,mp-27212
0.7778,-2.2054273819560004,Y4Cl6,mp-27678
6.815099999999998,-2.522382471375,Na1H1F2,mp-27837
5.588100000000002,-2.7885912356700002,Al2Cl2O2,mp-27863
3.4374,-1.1029999854166659,Li4Ga4Br16,mp-28326
0.2433,-1.617324274875001,K12Fe4O16,mp-28696
2.0857,-1.033780794743056,Na32Cu16S24,mp-28789
3.0512000000000006,-1.3880230871733337,Sn8Cl16,mp-29179
0.3886000000000003,-0.5273997589999997,Ca1Mg2Bi2,mp-29208
4.5120000000000005,-3.397530632692308,Ba8Si12O32,mp-29222
3.0675000000000003,-1.3670449305989585,Te2Se2O8,mp-29299
2.4427000000000003,-1.0879289081828714,Li4B4S10,mp-29410
0.6358999999999999,-1.22831251296875,Y20C8I36,mp-29426
2.2331,-2.0129048924045563,Cs8S16O32,mp-29704
4.0445,-1.6651814062413792,Cs2Mg2Br6,mp-29750
1.4197000000000002,-2.995417120071023,Pr4Se3O4,mp-30192
0.7649999999999999,-1.6068501854687494,Tb20C8Br36,mp-30229
1.3474,-1.911760770060139,Tb4Se3N2,mp-30291
2.8179,-1.3339751893345104,Ti4N16O48,mp-30998
1.4736999999999998,-0.9091539855289152,Rb8In8Se16,mp-31309
1.4288999999999996,-1.8895797349062495,Nd16Se24,mp-32688
3.7991,-1.7862464973660717,Tl8S4O16,mp-4112
3.5636,-2.497799039829546,Zr4S8O32,mp-4325
1.8843,-0.9733922535632183,Rb2Te1,mp-441
2.4411,-0.7136689874999997,Li2Al2Te4,mp-4586
3.1049,-1.6093242734477782,Sb12Cl12O12,mp-504662
2.1593,-1.637287612502299,Rb8Na12In4O16,mp-504851
1.3861,-1.096417542701149,Cs2Dy2Zn2Te6,mp-510462
0.5939999999999994,-2.567771309250001,La4Rh4O12,mp-5163
1.3415,-2.239001414490001,Zr48N8Cl120,mp-531184
3.3465,-1.5534301719999999,Os2O8,mp-540783
0.02729999999999988,-0.4218633258333331,Tm16Ga6Co2,mp-540856
1.6192,-2.2461412424996428,Ho4Au10F42,mp-541349
2.4419,-2.570544547065476,K4Mo4P8O32,mp-541350
0.03819999999999979,-1.1676734332933338,Pt4O8F24,mp-541474
2.2621,-1.3632746834314289,Hg1Pb2Cl2O2,mp-546862
0.8177999999999996,-1.6088376841071426,Ca4Bi2O1,mp-551873
0.8413999999999997,-3.306968132291667,Pr2Ti2S2O5,mp-552963
1.5831,-1.122409471179358,Rb48Ag16O32,mp-553907
4.2642000000000015,-3.243275033499132,Li2Ca18Mn2P14O56,mp-554324
4.1799,-1.1854170880555557,Ba2Br4O12,mp-554626
2.5425,-1.888483566682692,Tl8Mo10O34,mp-554919
4.6362,-2.6362691961217157,Cs2Ga4P10O32,mp-555006
1.8055,-2.628326381696429,Ba2Mo4P6O28,mp-555195
4.6463,-2.4914661040175003,Tl1As1F6,mp-555911
3.9452,-3.07090418110762,Sr10V6Cl2O24,mp-556224
2.681,-1.93846400744,La2C2N4F2,mp-556405
2.1291999999999995,-2.1921600490178577,Cr8P4Br4O16,mp-556473
2.6428,-1.5004917922777778,K4Cr4I4O24,mp-557449
0.9173999999999998,-0.7441604620327382,Cr2Ag2P4S12,mp-557592
2.3228,-0.941080112057292,Hg8Se4O12,mp-557637
3.4132,-3.0142397729166674,K2Na2Pr2Nb2O10,mp-558317
3.9475,-1.9217309231155304,B8Se8O28,mp-558521
3.3052,-2.0929428164034105,Na4Sm4Se8O28,mp-559160
0.7238000000000007,-1.1573160740384612,Ta4Pt6S16,mp-560046
3.8047,-2.7737262945000003,Na8Si6Sn1O18,mp-560597
3.8343,-2.8704605122611766,Na6Si6Sn2O18F2,mp-560937
2.2188,-1.3786745026384726,Ba32B20N40F4,mp-561502
4.4081,-2.9673474766139845,Cs16Li8Si24O60,mp-562394
2.5176,-2.9188919400079376,Ti4Co2P4O20,mp-562797
1.223,-1.4202546764713542,La6Cu2Sn2Se14,mp-567753
3.7414,-0.3965566608566667,K12C24N36,mp-567823
1.3417,-0.37889728661764704,Cd4Hg24As16Br24,mp-567910
0.07830000000000004,-0.7360604315885421,Ba1Ag2Sn1Se4,mp-569114
2.4352,-1.3735317909076787,Nb2As2P2Cl26,mp-570225
1.0197000000000005,-1.6529470780357145,Ba12Pr6I38,mp-570423
0.7644,-0.5383524662397373,Rb4Ag2Au6I16,mp-570536
1.5114999999999998,-0.8886205890763064,Rb8Ba4Nb8Se44,mp-571293
1.1823000000000006,-1.715594205781251,Tb4Cu4S8,mp-5737
0.02629999999999999,-0.2902909606666667,Li85Pb20,mp-574275
3.933099999999999,-3.3005271996875,La24C12O60,mp-579552
0.20420000000000016,-0.7882511950000002,Ce6Bi8Pd6,mp-582142
1.0023000000000002,-3.4259517155829995,Ba4Ca2Cr4Cu2F28,mp-582663
4.705,-2.9489819096425003,Ga2F6,mp-588
0.9518999999999996,-2.5235082382812504,V12O20,mp-622497
3.3733000000000004,-3.1279959707500007,Ba2Er1Sb1O6,mp-6231
3.1762,-2.6605043999592404,Be6Fe8Si6S2O24,mp-627398
3.8154,-3.31304317419271,Ba18Y6B18O54,mp-6310
3.9353,-2.5120577559257637,Cs6Sc4Cl18,mp-637194
0.9179,-0.4865797393841906,Nb4Tl8Se22,mp-638104
0.7377,-2.466060047544643,Li4Cu2P4O14,mp-6412
4.2077,-2.2149434662175,Ba4H4Br4O4,mp-643036
2.6689999999999996,-0.3396582620763637,Mg6Re2H14,mp-643061
3.0737999999999994,-2.386773366065293,Rb12Li2Pr22Se24Cl32O72,mp-645405
3.4487,-1.57501790417572,Rb12Nd8N36O108,mp-667380
1.6667,-0.6249789274759998,Li14I2N4,mp-675941
2.6169,-1.4634642153956172,Rb5Te3H4N1Cl18,mp-677467
4.5627,-2.8243918249649114,Na6Sr2B10O20,mp-6775
3.1317,-2.7440173417500002,Li12Nd12Te8O48,mp-677627
4.8696,-2.8088459635201164,Rb8Li8B32O56,mp-6787
3.6441,-2.3128670056808045,Pr24Se36O108,mp-683974
0.029300000000000107,-2.8319868478868733,Ba4Ce2C6O18F2,mp-6850
4.8172000000000015,-3.226296916824503,Ba2Na10Ca14P12O48F6,mp-693753
4.9956000000000005,-2.497679592284288,Ho8H16C4O28,mp-697339
5.7894000000000005,-2.5019143017655763,Rb4B20H12O38,mp-698164
4.8264000000000005,-2.4843112031286574,Mg14P4H16O32,mp-699232
2.1487,-1.5752235630711218,Rb2Fe2Se4O14,mp-703253
0.5667000000000004,-0.8001315631628566,Sr6Ga2N6,mp-7191
0.7469999999999999,-0.821039440639009,Cs4Se6,mp-7449
3.6931,-3.1122260269612068,Rb1Lu1O2,mp-7480
0.19409999999999966,-1.509809039714286,K4Co8O16,mp-752629
3.4117,-2.9494799362500013,Y2I2O2,mp-753712
2.8901000000000003,-2.5281350045238096,Be6Ga12O24,mp-757917
5.7915,-1.1164405518612508,Ho2Cl6O24,mp-770754
2.3845,-2.0795542661123085,Na6Mn2As2C2O14,mp-771035
0.2439,-2.7829287206034468,Li2Nb20O36,mp-772085
4.9205000000000005,-2.7012652102728576,K4Na4Zr4Si12H16O44,mp-773906
1.7946999999999995,-1.8521494392647064,Cr20O48,mp-773920
3.9836,-3.0508782745473337,Li18Fe6F36,mp-776627
5.377000000000001,-3.4242771258925004,Ca1Sn1F6,mp-8224
2.1615,-1.27528857075,Na12Zn2S8,mp-8389
3.5399,-2.64875925682,Pm2Cl6,mp-863658
1.4479000000000002,-1.0082027630411876,Cs4Ag4O4,mp-8666
4.8549,-0.389304076935757,K4Sc4B16H64,mp-866638
1.9021,-0.2924363680208337,Au4S2,mp-947
0.5288000000000004,-1.2418125283333332,Ba2Dy2Cu2Te6,mp-9503
3.3579,-2.732653338814,K4Cd4F12,mp-9628
0.6310000000000002,-0.4645270080571436,K4Ni2P4,mp-9672
1.6848,-0.38812177492884575,Cs6B2P4,mp-9675
4.9350000000000005,-1.5733367500000002,Li2Br2,mp-976280
0.5049999999999999,-0.4839005403703709,Hf3Tl12Te12,mp-984696
0.5349,-1.1212656697916668,Li2Ag2O4,mp-996962
1.8867,-1.6991196766718757,Na1Ho1Se2,mp-999474
0.7177,-3.366302013803077,Ba4Ca1V4Cu2F28,mvc-13172
1.6589,-0.6468295967142854,K2Mg2P2,mp-1018737
3.5604,-2.398405924965715,Ba2Al4Si6N8O8,mp-1019531
3.3032,-1.1246153262853322,Li4Ca2Mg1Si2N6,mp-1020016
4.4904,-2.924064391426813,Rb12Mg12P12O48,mp-1020616
4.7512,-2.873487201168956,Na14Al8P18O64,mp-1020724
1.7961,-1.2492083616066672,Ca8Nb4N12,mp-1029832
0.005700000000000038,-0.3250555217023867,Cs4Ag20Se12,mp-10480
0.009199999999999877,-0.4339467670833344,Er3Ni9,mp-1051
1.3556,-1.8189259345312507,Tm1Tl1S2,mp-1066791
0.002000000000000224,-0.6406899470000006,Ca1Ga2As2,mp-1070099
3.9702,-2.881191741838959,Lu2Se2O6F2,mp-1095437
0.10129999999999996,-2.017935295878233,Cs2S2O8,mp-1103912
1.7552999999999996,-0.778940575,Ba4P14Br2,mp-1105535
1.2421000000000002,-2.237174366937501,Ba4Hf4S12,mp-1105549
0.5430000000000001,-1.4120089384999999,Tb8Te12,mp-1105684
0.29329999999999945,-0.6530830202499999,La6Cu6Bi8,mp-1105893
3.2128,-2.0805638137226667,K2Sc1Ag1Cl6,mp-1112448
1.0046000000000002,-0.8410929297413791,Cs2Tl1As1I6,mp-1112544
0.6280000000000001,-0.3917970390625006,Pt1Se2,mp-1115
0.00990000000000002,-0.5110623750000007,Gd1Hg1,mp-11422
0.5637999999999996,-1.9329020507645,Zr4S2N4,mp-11583
4.6065,-1.173409490743485,Ca6B8H24O6,mp-1182037
3.8225,-3.1748827132121225,Ba2Na2Sc2B4O12,mp-1182298
0.3786000000000005,-1.7802636608184528,Nd8P8S8,mp-1191667
3.4486,-2.369662882142857,Ba4Ge4Pb4O16,mp-1192417
3.2543,-1.2854201494359816,Pb4Se2N4O18,mp-1192446
3.8273,-2.4909247011428572,K4Ba4As4O16,mp-1192590
1.7621999999999998,-2.0470030562585038,Zn4Ag4P4O16,mp-1193999
3.6835,-2.767890314204547,Ba12Zn12B42Pb6O93,mp-1195127
2.8266,-3.681738020231737,Tb12Se6O6F12,mp-1195159
1.7765000000000004,-0.9429468353897068,K4Sn6Sb4S20,mp-1195395
4.9110000000000005,-3.358389456904706,Mg10Si4O16F4,mp-1195642
3.2702,-1.590545673344546,Te4Pb12Cl16O12,mp-1196950
3.2057,-2.8253922182499998,Sr4Ca2Te2O12,mp-11982
5.6148,-0.3911076790746151,Li8B48H48,mp-1198726
5.5493,-2.9455265216871425,Al8B12H4O32,mp-1199198
2.6874,-1.910710518288043,Nb4Pb4Se8O30,mp-1199265
1.3456,-2.2073294844993576,Cs4P8Pd6O28,mp-1199678
0.6159000000000008,-0.7942198999609378,Ge12Rh8S12,mp-1199965
2.051,-0.9492715047222214,Ta6Br30,mp-1203015
1.3006000000000002,-0.7906173923873336,In4Te18Ru2Cl16,mp-1203469
2.1991,-0.5799880751490386,Sb2H72S8N22,mp-1204286
3.8453,-1.6369991569999995,Yb2Tl2Br6,mp-1206321
2.9166000000000003,-2.520806980833333,Tm2Tl2W4O16,mp-1207739
2.5181,-2.5013572469166667,Ta4Fe8O18,mp-1208436
4.8498,-3.7619418948437495,Sm8Si4O20,mp-1208880
3.1617,-2.3773993374305555,Sm2Ag2W4O16,mp-1208979
3.0780000000000003,-2.598864371695401,Rb2Tm2Mo4O16,mp-1209114
4.6522999999999985,-2.9767360718085856,Rb3Dy1P2O8,mp-1209375
6.5509,-4.278068351827857,Nd2Hf4F22,mp-1209873
3.9793,-2.7413396552941167,Pm4W6O24,mp-1209910
1.8235,-2.2927220731948057,Na6Sb6P4O28,mp-1210360
3.1809000000000003,-2.7933966557500005,Li12Dy12Te8O48,mp-1210935
3.8422,-1.8169721959147376,Mg5As4H22O26,mp-1211009
4.5397,-2.662994735832,K4Tb8Cl28,mp-1211526
2.69,-2.833899724569444,K12Gd4B8O24,mp-1211764
0.20299999999999985,-1.3812147628523812,K18Ce2P8S32,mp-1212015
0.14570000000000016,-1.767740337629181,Cs4Nb12V4Cl44,mp-1213417
2.8554,-2.235416622916608,Co8P4O16F4,mp-1213796
3.3461,-2.205517272546297,Al4Ni8B4O20,mp-1214877
0.1528999999999998,-0.7710201258139534,Ca42Cd8Bi36,mp-1214964
1.9251999999999996,-1.4345451485000005,Te1Pb3Br2O4,mp-1217453
4.0776,-3.5562227265000006,Sr2La2Mg2Ta2O12,mp-1218203
0.001100000000000101,-0.3074089340689657,Rb2Cd3Sn1As4,mp-1219760
1.5961,-2.853019555113637,Pr4Fe2Sb2O14,mp-1219865
2.2662000000000004,-2.129373001008928,Pr18Al10S42,mp-1220043
0.9282,-1.9069706517500007,Pr12Ge5S28,mp-1220147
3.7813,-2.7584287844872217,Mg6B2H4O10F2,mp-1222264
1.2708000000000002,-0.6029231125974028,K10Ba2Ta2P8,mp-1223894
2.5448000000000004,-2.082223143994565,Dy6Al2Si1S14,mp-1225400
0.5118999999999998,-2.821823414632353,Ba4Sc2Cu2O9,mp-1228084
0.6869000000000001,-0.8030471704444445,Ba12Na8Sb16,mp-1228324
2.3719,-2.60393611,Al2Cr2Fe2O8,mp-1229097
0.3895999999999997,-1.0924121719047621,Ca6P6,mp-1345
5.0609,-3.486121626583333,Nd4B4O12,mp-13514
0.6040999999999999,-0.7138759160416667,Pd4S8,mp-13682
0.4729000000000001,-3.167253767426472,Nd16Re8O44,mp-13758
3.5309,-2.6963877747058813,Sc8Mo12O48,mp-14118
1.2437000000000005,-0.4096767244047621,B1P1,mp-1479
1.0641000000000005,-0.6465381301876795,Rb2Pt4Se6,mp-14797
4.7064,-2.5454815783698983,Na16Cd16P48O144,mp-15250
2.7095,-3.1225203552721084,Ca1Ti4P6O24,mp-16831
3.3404000000000003,-3.9502095314538095,Ba4Ti4O4F16,mp-16915
4.6923,-3.8834122573437497,Lu8Si4O20,mp-16969
1.3647999999999998,-0.5833001255468755,Tl8Ga8Se16,mp-17254
2.2951,-0.9630987235401786,K12Sb4Se12,mp-17538
4.2592,-2.380346396034483,Cs4Re4O16,mp-17621
2.5055,-1.944263103678572,K4Na8Ga4O12,mp-17785
2.7739000000000003,-1.3323683993616076,K12P4S16,mp-17989
4.9738,-2.9973620857704084,K6Sm2P4O16,mp-18019
0.6732999999999998,-0.7897693116666673,Ba4Ag8Te8,mp-18501
1.5714000000000006,-3.317345935750001,Ho4V4O12,mp-19024
1.3822,-1.501986861442001,Mn2Ni2O6,mp-19331
1.8447,-3.194309151250001,Ba4Dy8Co4O20,mp-19364
0.8356000000000003,-2.540052894663463,Ba2V20O30,mp-19458
1.6879000000000004,-2.0964334951371435,Li4Mn4As4O16,mp-20052
0.006699999999999484,-0.4245734754166672,Ho3Ni9,mp-2042
0.007000000000000561,-0.6162230916666669,Eu2In4Pd2,mp-21258
3.6728,-3.019476644282965,Rb4Li2Fe2F12,mp-22663
5.0032999999999985,-2.09202133388,Na1Cl1,mp-22862
4.6276,-2.25148031884,Ba4Zn4Cl16,mp-23373
0.02890000000000015,-0.4666567099999994,Sc4Sn8,mp-2398