band_gap,formation_energy_per_atom,full_formula,task_id
3.2511,-2.098513614166667,Ge3O6,mp-733
5.5912000000000015,-1.9044232744275,K4H12S8O32,mp-733655
0.0057999999999998044,-0.3819859748333334,Na4Cd4As4,mp-7378
2.977,-2.8784922923814804,Li6Mn3F18,mp-752936
1.5037,-2.7789737441925,V4O5F7,mp-755181
0.31259999999999977,-2.702572726348889,Li4Fe2F12,mp-755193
0.2277,-0.8438822576923078,Co1Ni4O8,mp-756594
3.1617,-3.1315546945012485,Hf6N4O6,mp-761033
2.039,-0.204975647708333,Si6C6,mp-7631
0.5941999999999998,-0.9685030814677424,Na4Ni9O18,mp-764295
4.5992,-1.3385291857589756,Cs4P4H16N8O8,mp-767240
3.9903,-2.717126392619047,Be12Ge6O24,mp-768285
3.1583,-2.68648668575,Dy6Sb10O24,mp-768638
0.9584999999999996,-2.5745440228409096,Dy4Pb4O14,mp-769222
2.6067,-3.0254966388888898,Ta8Pb4O24,mp-771957
1.0059000000000002,-2.0824826406944448,Ca8Cu8O20,mp-772813
3.673200000000001,-3.033952073522728,Sm8Ge8O28,mp-772840
3.9706,-1.3185211152523029,H40Se4O32,mp-774848
1.4049,-2.96835005481,V8O6F18,mp-775103
2.8814,-1.868384643125,Pm2Br6,mp-862986
2.2396000000000003,-1.6332729470833336,Bi4Te4O16,mp-863374
0.08560000000000034,-1.0896937212499995,Yb2As1Au1,mp-865799
1.8941,-0.5836754324688391,Li3As1H36Se4N12,mp-866667
1.252000000000001,-1.478347820500001,Na1Rh1O2,mp-8830
2.7869,-2.4778419010615327,Cs2Pt1F6,mp-9262
4.6293,-3.035842493667582,La2P6O18,mp-9646
1.6465,-0.8923482111302081,K4Sn2Se6,mp-9693
2.3054,-1.200822760568966,Rb4Sn4Br12,mp-998778
3.0655,-3.2118021403874994,Ca1Mn1F6,mvc-15847
0.06450000000000022,-0.04122609124999999,Cd2Sn2Sb4,mp-10063
0.09030000000000003,-0.9446475008333336,Nd1Bi1Pd1,mp-1008858
2.4385000000000003,-1.3113474685818174,Li4Ca12Si8N20,mp-1020056
5.5096,-2.0665752560833326,Li8B8S32O112,mp-1020060
6.0208,-2.233997590774306,Na2B2S4O16,mp-1020658
0.2373000000000012,-0.6303736697478984,Ce1P12Os4,mp-1021505
1.2158000000000002,-1.336466781613332,Ca8Hf2N8,mp-1029730
2.1486,-1.3642527465625005,Te4O12,mp-1101301
0.0141,-0.5263021316666668,Nb4Ni4As4,mp-1103243
0.3963000000000001,-0.7166314557812505,Cu4Si2Hg2S8,mp-1106310
3.2483,-0.1206726970899994,Al4H12,mp-1106356
2.9609,-1.4500175197413792,Cs2Li1Pr1I6,mp-1113008
1.0703999999999998,-1.516181835546876,Sr2S6,mp-1175
4.0889999999999995,-2.6779917393510004,Pr4Si2C2N4O8,mp-1186715
0.05269999999999997,-0.2847511082445141,Rb4Cd10As8,mp-1191656
3.8102,-2.6777128675,Li2Er2W4O16,mp-1192111
1.4787999999999997,-2.514375548392858,Yb4Tm8S16,mp-1192415
2.7215,-2.372429626924872,K2Zn4Cd2B4O12F2,mp-1192840
3.8234,-1.4796282753448278,Cs8Zn4Br16,mp-1193173
1.2779,-1.1956326725066668,Bi6Te4Cl20,mp-1193877
0.14570000000000016,-0.5585465413333329,Y8Zn10Ge12,mp-1194159
2.1178000000000003,-2.3162151910995448,Ba4Mn36V24H8O104,mp-1194843
4.8162,-3.6264277904687514,Ba2Dy4Si6O20,mp-1195063
0.3648999999999996,-1.5766376839374998,Ba4Nd4Sn8S24,mp-1195589
1.5027,-0.23944552352022064,Ir8Se36Br24,mp-1195597
4.0587,-2.0106726102444243,Li8Sc8H16Se16O56,mp-1196171
2.9081,-2.686354427748681,Cs8Co6F20,mp-1196471
3.7732,-2.834079539045323,Nd14Se8Cl6O34,mp-1197266
2.4246,-2.779025502486613,Cs12Ca4Fe4P16O56,mp-1198664
3.2905000000000006,-2.23505832609375,Ba12Te12Br8O32,mp-1198919
3.7576,-3.22321643451087,K4Na4Sm8Nb4O26,mp-1200960
4.1798,-2.0885623586527777,Na48C24O72,mp-1201027
1.0369000000000002,-0.4508168429366918,Cs16Te4Se60,mp-1202488
1.2813,-0.9634893495634916,Ba12Al8P16,mp-1202948
1.1246,-0.7252695083512929,Cs6Hf4Cu2Te20,mp-1203208
1.6559,-1.6694939884715367,Ca4Fe12Se18Cl8O54,mp-1204736
1.4146999999999998,-1.4413693651346982,Cs8Fe2O6,mp-1205381
3.952,-2.9672268975760687,Cs3Fe1F6,mp-1205629
0.2088000000000001,-0.2544151776388889,Sm1In1Cu4,mp-1206095
0.12650000000000006,-0.9289515366666664,Pr1Bi1Pd1,mp-1206720
1.5204999999999995,-1.42958851907125,Lu1H1Se1,mp-1206843
3.5126,-3.5929136822500003,Ba2Tb1Ta1O6,mp-1207064
2.7036,-1.7305210580700001,Ta2Tl2Cl12,mp-1208560
1.4888000000000003,-2.2122828979375,Sr4Hf4S12,mp-1208643
3.753600000000001,-3.5684809185000006,Sr4Sm2Ta2O12,mp-1208761
6.005799999999999,-3.1217316425490185,Sm4Mg4B20O40,mp-1208862
5.0183,-2.4844491175594485,Rb12Tm4Cl24,mp-1209443
0.06040000000000045,-0.8895406437991665,Pr6Cr20N22,mp-1209943
3.2264,-2.3577606028233333,Na2Mo2O6F2,mp-1209982
4.068899999999998,-2.1975015395064657,Rb32Zn8Mo24O96,mp-1210004
2.5579,-3.58107886746,Li2Ca2V2F12,mp-1211094
0.8975,-1.9747188209722224,In4Sb4O16,mp-1212067
1.0549,-1.0177763747844828,Cs4Fe4Br16,mp-1213351
3.0777,-2.604701305100574,Cs2Gd2Mo4O16,mp-1213392
4.7551,-2.562185557026724,Cs8Y4Cl20,mp-1213783
4.9566,-3.3289186209796733,Cs8Mn8Be12F48,mp-1213854
0.8852999999999999,-0.8058570641422224,Cd32As16Cl24,mp-1214272
2.0022,-1.8644699925,Ba2Pb6O8,mp-1214389
7.1463,-4.2330995708925006,Ba2Hf2F12,mp-1214420
1.2466,-2.7448278688372736,Y3Mn2Sb3O14,mp-1216224
1.6699000000000002,-1.4388113348214289,Te4O10,mp-12177
3.826,-2.427411198271717,Sr2Nd20Se24Cl16O72,mp-1218343
0.2147000000000001,-2.2130375417968744,Sr12Cu3Ir6O27,mp-1218745
0.2530000000000001,-3.0046317843460004,Sr2Mn1Nb1O6,mp-1218746
7.1331000000000016,-3.9911954930711113,Na3Sm3F12,mp-1220915
1.083,-1.2342035508895235,Mo3Cl18,mp-1221487
3.4878,-2.790525962560371,Mg2Mn2B4O10,mp-1222009
2.2537,-2.2911295025,Ca4Te4O16,mp-12221
1.9214,-2.0010424573973338,Mg3Mn1Ni3O8,mp-1222170
0.06879999999999953,-3.0047545831818185,La1Tb3Mo4O14,mp-1222843
0.3923000000000001,-0.6348212879090912,K8Ba4Sn2Sb8,mp-1224100
1.9299,-3.070942175568182,Ho4Cr2Sb2O14,mp-1224219
3.3385000000000007,-2.3837290165243177,K5Na1Ni5P8O28,mp-1224256
5.4755,-3.3495580759274333,Cs2Mg2Ga2F12,mp-1225927
2.5931,-2.682488594260766,Cs2Fe2Ni2F12,mp-1225937
2.08,-3.2407833359274334,Cs2Li1V3F12,mp-1226312
2.0609,-3.0865131464829885,Cs2V2Fe2F12,mp-1228886
3.2177999999999995,-1.0495575233774996,Sr1C1N2,mp-12317
0.4109999999999996,-2.82546488625,Li2Pr4Os2O12,mp-12449
2.9772,-0.9922433993149989,Mg6Mo2N8,mp-1245510
0.4529999999999994,-0.3717555050000006,Sb8Ir4,mp-1247
2.0906,-2.838068089375,Ba1O1,mp-1342
3.3208,-2.8607644939483334,Sc8Te8O24F8,mp-13551
2.0981,-1.0043967281250004,Ca8Ga16Se32,mp-13873
3.8554,-2.7392092858925,Cd1Sn1F6,mp-13907
0.4825999999999997,-0.9482315733673464,Ba6P8,mp-14289
1.965,-1.0943284804087492,Ba24W8N32,mp-14743
5.1106,-2.721909092020089,Mg4P16O44,mp-15437
1.3528000000000002,-0.09135634517857076,Al4C3,mp-1591
0.24659999999999996,-0.5129328199999996,As8Rh4,mp-15954
0.09090000000000042,-0.032995571717241746,Rb2Na4Si34,mp-16836
0.6434,-0.4054212898333335,K4Na16Ge4As12,mp-16921
2.0940000000000003,-1.3126270936989803,Sr4Tl4P4S16,mp-17090
1.5907,-1.364747071181818,K12Cd2O8,mp-17161
2.9690000000000003,-2.917882828457792,Sr4Cr4P8O28,mp-18207
1.0328000000000002,-0.4033431291199718,Rb4Cu4Se16,mp-18365
2.4863,-1.8947797695977016,Rb16Ge4O16,mp-18464
2.3071,-2.0081406524108,Cs2V6Se4O24,mp-18545
1.5336999999999996,-2.483115863392858,Ca4Y8S16,mp-18642
0.4341000000000004,-2.5900519367411103,Sr4Mn4O10,mp-18798
2.8551,-2.7116844047222233,Ba3V6O18,mp-18929
0.8097000000000001,-2.4289798995833323,Li2Yb2W4O16,mp-19104
2.8479,-2.310307886875,Li8Mo2O10,mp-19117
3.5098,-2.5723602503988103,K4P8W4O32,mp-19462
0.00029999999999974486,-0.2876991344444437,Gd1Ag2,mp-19783
0.7000000000000002,-1.7010769891136368,Na4Te4O14,mp-20254
3.3457,-2.804942425955379,Cs2Pb2F6,mp-20282
0.012700000000000156,-0.7836090324999994,Eu4Ge4Pd4,mp-20615
3.5995,-1.1707617260844454,Pb4N8O24,mp-20820
0.27450000000000063,-0.9052598150000004,Er1Ni1Sb1,mp-21272
0.6425000000000001,-0.3703829053948417,Na24In8P16,mp-21577
0.02200000000000024,-0.6345002024999999,La20Pb16,mp-21691
2.4801,-2.175575741428572,Co8Si4O16,mp-21856
0.4026000000000001,-3.051061273442,Tb4Mn4O12,mp-22055
1.3631,-0.5070223461275001,Cl4O12,mp-22869
5.0003,-3.2307150020633326,Sr2Br2F2,mp-23024
0.16819999999999968,-0.8051483935416663,Ti4I12,mp-23264
5.347200000000001,-2.461467175433673,P4O10,mp-2452
3.8563,-1.7565117583811467,Ca2H8Se2O12,mp-24534
3.6497,-0.4172290142849988,Li1N3,mp-2659
3.4235,-3.1007239736424568,Rb8Cr4F20,mp-27154
3.6484,-2.036376195625,Li8Te4O12,mp-27231
0.6106000000000003,-1.2042145984777777,Tl6Co2Cl10,mp-27333
0.7032,-1.489356220222667,K6Ni6Cl18,mp-27366
4.127,-3.3255044867187498,Sc12Ge6O30,mp-27576
1.2806999999999995,-2.5946138801041685,Be4Te1O7,mp-27608
5.5451,-2.9626328140719704,Ba4B32O52,mp-27794
1.3520999999999992,-1.3432492248090284,Ba6Sn12S18,mp-27802
0.05249999999999977,-1.278535966348889,Ti2I2N2,mp-27848
1.1627,-0.31597405892113073,Tl6B2Se6,mp-28490
1.0868,-1.8635365578814287,K4Nb6Cl18,mp-28501
0.05679999999999996,-3.1552768979732573,Rb2Ta15O32,mp-28531
0.1581999999999999,-2.8757845814031584,Hf2Ag3F14,mp-28550
4.8641000000000005,-2.9484974566266664,Li2Bi2F8,mp-28567
0.8646000000000003,-0.5305552733790759,K2Bi8Se13,mp-28800
4.0394999999999985,-2.900292964659962,Rb8Si8O20,mp-28971
2.5176,-2.1328247507142857,Sr2Bi4O8,mp-29048
0.2597000000000005,-0.4814630031249996,Al4Fe6Si6,mp-29110
0.9645,-0.6882067534500003,K16Te16As8,mp-29380
1.0383,-0.676306620833334,Tl4Fe4Br16,mp-29423
2.2042,-1.6980771032112072,Rb2Bi2O4,mp-29521
0.9986000000000002,-0.18981928330172385,Cs8Na8Ge16,mp-29566
3.0699,-2.511292659844348,Fe2As8F36,mp-29757
1.4116,-0.9834858174466664,Ca16Ge4N16,mp-29808
5.1968,-2.486540530356,K12Er4Cl24,mp-30197
0.05160000000000009,-0.33806914241379304,Rb4Sn2Au7,mp-30416
0.010299999999999976,-0.08727704291666663,Ho3Fe9,mp-30634
0.016300000000000203,-0.5516549791666664,Sr8Pb4,mp-30828
4.9219,-2.78090211114394,Na6B14O24,mp-31073
1.6922,-2.2484602158925,Ca4N2F2,mp-33588
0.6092,-0.6523813366374993,Sr2H5Rh1,mp-35152
0.4415,-0.7326489451987549,Cs4Mn6Se8,mp-3704
1.0305000000000004,-0.9405520370312505,V1Cu3S4,mp-3762
0.09019999999999984,-0.2725040686979163,Ag2Au2S4,mp-37920
0.26459999999999995,-2.9457305446164037,Ca2Ti2Fe2P6O24,mp-39160
2.3317,-2.8084046148106068,Gd4Ti4Cd4Sb4O28,mp-39684
4.0969,-3.466207632678571,Ba8Al16O32,mp-4202
0.2487000000000001,-2.1270005582360234,Cs2Ti4Cl14,mp-505663
0.012900000000000134,-0.4476774024999992,Sc3Co1C4,mp-5075
2.905,-3.0858774084375007,Ba4Co2Si4O14,mp-510015
0.8186,-1.4520846643750005,Fe1Cu1O2,mp-510281
1.4687000000000006,-2.426187661969112,Fe7P6O24,mp-510351
2.798,-2.666304444642857,Sr4Cr8O16,mp-540583
4.396400000000001,-2.741429580059523,Ba4Cd4P16O48,mp-540736
2.134,-0.6754023126157409,Ti4Tl16Se16,mp-540940
1.626,-1.0032633928258927,K12Sn4Se12,mp-541875
4.4995,-3.2777250884615388,Ba3Nb2O8,mp-542201
3.7957,-2.4322904355193518,Sn3P1O4F3,mp-546757
3.9633,-3.0519873580000008,Ba2La1Sb1O6,mp-551269
5.4163999999999985,-3.4418793401486654,Mg6B2O6F6,mp-554542
3.1626000000000003,-2.781431020583334,Ba6Ca2Sb4O18,mp-554817
4.6909,-3.239989646175,Tb6Si4Cl10O12,mp-555097
2.1985,-1.2320696470312504,Li4Zn2Sn2S8,mp-555186
2.0922,-1.52462275225,Cr2Hg2Pb4O12,mp-556308
1.848,-1.9726522771425,Co1Pt1F6,mp-556492
3.4914,-2.4104580903303576,K8Ni4P8W4O40,mp-556502
3.4410000000000003,-3.592336328333333,Dy2Nb2O8,mp-556639
1.658,-2.0940301967500003,V4Cd4O12,mp-556857
3.6435,-1.825104166370536,K24Se12O48,mp-557025
1.8643,-2.2181937222625,Mn1Pt1F6,mp-557668
3.6495,-1.9466976800093756,Na8Mo4Se4O24,mp-557923
4.189,-2.1374796934075,Te4O4F8,mp-558387
2.3115,-2.2530434105921056,V16Fe8O52,mp-558525
1.8153000000000008,-1.8227508857031258,Dy6Cu2Ge2S14,mp-558740
3.7306,-2.4323774845238098,Bi2P2O8,mp-558798
2.7983,-1.6843509734999995,Na2Ni2As2O8,mp-558835
1.261,-0.4590522133072921,Ag4Hg4S4Br4,mp-560067
4.5888,-2.375409050359131,Li8Be6As6Cl2O24,mp-560072
2.3522,-2.475067417445054,Cr24P16O64,mp-560101
3.3427999999999995,-3.0506083067389995,Nd5Te2Cl3O10,mp-560170
4.6217,-1.8762757119980296,K2B2S8Cl8O24,mp-560423
6.1559,-3.1018789175746875,Na2Pr4S4O16F6,mp-560673
2.6985,-2.165184498928572,Sn10P4O20,mp-560715
3.5011,-2.422375804631335,Sr1Bi6P4O20,mp-561005
2.1982,-1.0973915795795457,K4Ge4Pb2S12,mp-561132
1.9337,-0.32054998953869074,B4P4I12Br12,mp-567433
0.9148,-0.5608297775681481,Ag6Hg18As12Cl18,mp-567890
1.2702999999999998,-1.3844009342968755,Dy1Tl1Se2,mp-568062
1.41,-0.5233578877681552,K24P24Se72,mp-569702
1.1123,-2.18638626905,K4Zr24C4Cl60,mp-570066
2.6564,-1.1166761050649994,K16Ta16N32,mp-570755
2.6511000000000005,0.0,Cl16,mp-570778
0.7685999999999997,-1.0551399967215265,Cs2Zr12B2I28,mp-571410
1.8661,-1.5479811884502608,Re4P4Cl24O12,mp-572794
0.9844,-0.4207999990056818,Tl8Re12Se24,mp-616190
1.2101000000000006,-0.4482258997306037,Rb4Ta4Cu8Te16,mp-617442
4.0681,-3.0232858507639997,Na12Li12Fe8F48,mp-6247
3.7165,-2.316682682087143,La2H6O6,mp-625394
3.904,-1.4982280368674068,Ba2H32O20,mp-626268
3.3341000000000003,-1.5620795425716096,Rb2H2O2,mp-626620
0.017500000000000068,-1.5965458811764708,Gd6Co1Br10,mp-637600
0.4821,-2.8133472412,Na2La4Ru2O12,mp-6389
3.3728,-3.602630585833334,Lu2Nb2O8,mp-644492
4.6294,-3.3843824667857145,Ca4Mg4Si4O16,mp-6493
3.9803,-2.53770050436508,Fe4P8O24,mp-649683
0.4792000000000001,-1.9876104987500007,Ba4Cu4As8O28,mp-6571
1.4261,-0.7320011490468756,K2Nb2Cu4Se8,mp-6599
3.8135,-2.7914732977829657,Rb2Pb2F6,mp-674508
1.8707,-2.7082851214500003,Ba2Na1Re1O6,mp-6798
0.6745000000000001,-3.0344544239399998,Li4Eu12Si4Cl12O16,mp-679929
1.4029000000000005,-0.3672587605875002,K48As112,mp-680329
2.3911,-2.2746430127014654,Cd36P24O96,mp-680761
2.6348000000000003,-3.3412158010960007,Sr2La2Ta2Mn2O12,mp-684742
3.0471,-3.1484929153452383,K2Li1Ta6P3O24,mp-684817
0.9613,-1.2983162970208333,Na32Pd16O48,mp-685478
3.4112,-2.188915105823266,Sn4P4H4O16,mp-690702
4.1269,-0.3151184425685715,K8Zn4H16,mp-695998
1.8987,-0.6878032940186203,Rb2Ca2H12N6,mp-696329
5.1988,-1.3549447795318506,Si1H12C2N6F6,mp-697253
1.9093,-1.3150553776354172,Fe4Ag4Se8O24,mp-704626
4.639799999999998,-2.4276025561161907,K20Na4P12H12O48,mp-707453
3.3404000000000003,-2.3306658945818524,Y8H18N2O26,mp-707981
0.4237000000000002,-0.4525420558333331,Sr4Ca4Si4,mp-7084
2.8389999999999995,-2.2853357057054264,Pr20Al1Si19N33Cl2O19,mp-721011
3.612600000000001,-3.064024442375,Na2Sm2O4,mp-754027
3.9436,-2.414065484090909,Mg1Re2O8,mp-754311
4.5008,-3.402038199375,Li2Lu2O4,mp-754605
2.9596,-2.996538833426724,Cs2Sc2O4,mp-754826
2.5242,-2.855227424375,Ca3Cd1O4,mp-755287
3.5881,-2.9257067454166674,Nd2I2O2,mp-755336
1.4544,-1.8091256621,K8Li12Co4O16,mp-757868
0.4141000000000004,-1.4190500663750008,Li10Co1Ni9O20,mp-759912
2.0693,-2.642679888911148,Rb4V4B4P8H4O36,mp-767613
1.5144,-1.0555720054828617,Cs8Zr6Se28,mp-768674
2.7439,-2.2852405906958126,Cs12Sc4O12,mp-768976
3.2141,-2.5101407334434875,Rb12Ti4O14,mp-770408
0.4651999999999998,-0.7318989971300004,Co4N4Cl16O12,mp-772570
1.2510999999999997,-1.929256746428572,Li2Co2Sb2O8,mp-773085
2.6314,-1.9121964434913792,Cs4As4O12,mp-776093
4.4896,-1.1472921851424998,La2Cl6O24,mp-780362
2.3612,-1.639940754535715,K2Nd2Ge2S8,mp-861866
1.952,-1.41143109875,Pr2I6,mp-862800
3.2103,-2.4375915190561237,Li16Co16P16O64,mp-863378
2.987,-1.8358881,Tm2Br6,mp-865301
1.4191000000000005,-1.318721531291308,Cs4V2Ag2S8,mp-8684
0.8461000000000003,-0.7581673801999997,K4Mn2Te4,mp-8719
2.7465,-1.3898986198024428,Rb2Li2S2,mp-8751
0.22179999999999975,-3.24542035864774,Rb2Nb1F6,mp-8994
1.0276,-0.5692344475833332,K4Na2Al2As4,mp-9069
1.7428,-0.4460856712553885,Rb1Au3Se2,mp-9385
1.4722999999999995,-1.3328282833924998,Au6F18,mp-942
4.6930000000000005,-4.223130064146667,Sm2O2F2,mp-9488
2.6995,-2.5735421447999998,K2Gd2C4O12,mp-9806
3.7469,-2.720712147989862,Cs2Rb1Tl1F6,mp-989567
5.9392999999999985,-3.072229015989862,Cs2Rb1Ga1F6,mp-989618
2.1454000000000004,-0.30251936586337924,Cs2Na1Al1H6,mp-989642
0.6164999999999994,-0.2422934987500005,V1Cu3Te4,mp-991652
3.5424,-3.8067282852499997,Ba1Hf1O3,mp-998552
2.886,-2.307468615714285,Mg2Mo4O8,mvc-5692
0.7525000000000004,-1.0461693837499997,Ho1Tl1Te2,mp-1007663
0.11230000000000027,-0.5358176109050001,Ba1Ga1Sn1H1,mp-1018094
3.945,-2.086836378642241,Ba4Ge4S24O84,mp-1019548
4.5217,-2.711035331468595,Cs9Li12B21O42,mp-1019615
5.3918,-2.7617830747823136,K8Li4B4P8O32,mp-1019782
3.4668,-1.4595662746955549,Mg12N24O72,mp-1020058
4.7313,-2.8623715390508235,Na16Mg12P16O60,mp-1020162
0.6962999999999999,-0.5176638356760971,Na30Cr14N38,mp-1029705
0.05559999999999987,-0.4220714820887211,Rb2Ag6Se4,mp-10477
2.2547,-0.6005901367968747,Ta1Tl3Se4,mp-10644
0.5030000000000001,-0.6838454796650002,Na1Cl7,mp-1080771
0.9164,-2.4904783474999994,V4O8,mp-1102963
0.36439999999999984,-1.8904597980208344,La4As4S4,mp-1103471
0.01100000000000012,-0.2566400664285712,Sr5Al9,mp-1109
3.4837,-2.033060906330713,Cs2K1In1Cl6,mp-1112759
3.2568,-2.5920753441304343,Be6Fe8Si6Te2O24,mp-1134064
2.7578,-2.8867456793152004,Na8Al6Si6N2O28,mp-1173714
0.7818999999999999,-1.5895389278454557,Re2Cl5O4,mp-1179677
0.3843999999999994,-1.5237546214285729,Eu8Ga16S32,mp-1181942
0.022800000000000157,-1.2552812376470583,Er6Ir1I10,mp-1188271
0.5525000000000002,-1.4246209885000003,Y8Te12,mp-1189791
1.0619999999999998,-0.8899298492006273,Cs2Tb4Ag6Te10,mp-1190323
0.4213,-0.7154612897983329,Er6H18,mp-1190750
0.6836000000000001,-1.1522947053616666,Tc6Cl18,mp-1190915
1.2799,-0.5149337893749996,As8S16,mp-1191613
0.5761000000000003,-1.1657394693750007,Tl8Cu2Te2O12,mp-1191858
0.16169999999999973,-0.3493416633333333,Ho16In6Co2,mp-1192267
1.0585,-0.7859963596540176,Li8Mn2Sn4Se14,mp-1192737
0.9187,-1.9025887804516068,Gd12Se12N4,mp-1193201
2.164,-1.1384432821019352,Y4Tl8P8S28,mp-1194527
2.7258000000000004,-3.6527226655095153,Sm12Se6O6F12,mp-1194932
4.2656,-3.12641967125,Al16Si16Pb8O64,mp-1195073
3.4957000000000003,-2.8422848293148144,Ba8Na2Ga4B16Br6O36,mp-1195423
3.6119,-3.0745372335448717,K18Sm6Si12O42,mp-1195475
5.5406,-1.218308374916667,Li4H8Cl4O20,mp-1195620
2.9868,-3.10720893747807,Gd4Be8B20O44,mp-1195691
5.6682,-2.612772862051747,Ba4B22H14O44,mp-1196038
3.1682999999999995,-2.2012417255011107,Ba12Ga4S16Cl4,mp-1198976
1.8731,-1.8902530205357144,Ba16Ga8S32,mp-1199702
0.2508999999999997,-0.6848873582857145,Pr8Si8P24,mp-1200190
4.5454,-2.446152787945313,K4B12Se4O28,mp-1201786
5.2606,-1.5858035105320007,Mg4H32Cl8O16,mp-1203165
5.0511,-1.8444213711211193,Rb4Mg2H24S4O28,mp-1203952
5.3598,-2.273816599146175,K2Mg1P4H8O16,mp-1204159
4.6054,-3.2292515498717953,Tb8Ge4B8O32,mp-1204495
3.5503,-0.8913402466073336,B44H8C4Cl44,mp-1205245
2.5897,-2.346049578714,Tl3Fe1F6,mp-1205667
3.114,-2.2307009095000003,Ba2Bi2Br2O4,mp-1206552
0.9309000000000004,-0.5079588504827589,Cs4As4Pt2,mp-1206558
4.4435,-2.7070376162071423,Tl2Bi6F20,mp-1208058
3.5166,-2.8271515425225004,Sr12Ga8Cl8O20,mp-1208802
4.5335,-2.6739662320664825,Rb4Tb8Cl28,mp-1209188
3.3555,-2.6816257746120686,Rb2Lu2W4O16,mp-1209359
2.5459,-2.6632230465664835,Rb4Gd8Cl28,mp-1209362
6.3685,-2.3315492531524704,Rb4C4O4F12,mp-1209379
1.9456,-3.1121101886712887,Rb4La2Nb10O30,mp-1209583
0.04050000000000065,-0.2265619936274505,Sc88Ru14,mp-1209947
0.07279999999999998,-2.1672540611265867,Rb4Zr24B4Cl60,mp-1209995
0.9963,-2.9022777261683337,Na1Gd1Cu2F8,mp-1210079
4.5275,-3.0411357095204075,Na4Sr4P4O16,mp-1210115
0.02700000000000013,-0.22062150352941168,Pr46Cd8Ni14,mp-1210494
4.2259,-1.6951191078500003,Na6Dy2Br12,mp-1210536
1.7199,-2.029571267577391,Mn5V2H4O12,mp-1210639
2.551,-1.992329181308334,La4In8Cl20,mp-1211578
3.2503999999999995,-1.2655846580297616,K3In1I6O18,mp-1211728
3.4404,-2.699608691524631,K2Rb1Pr1V2O8,mp-1211736
2.4165,-1.1486602444218752,K8Al8Se16,mp-1211743
0.06709999999999994,-0.1978528978947368,La12Co6Pb1,mp-1211847
0.05100000000000016,-0.5499284196874994,Ho20Co4Bi8,mp-1212341
0.9746,-1.1400219627387271,Cs2Lu2Nb12Br36,mp-1213352
3.8707,-3.453466465231482,Ba12Lu4Al8O30,mp-1214530
1.6414,-3.1521791352500004,Ba2Tb1W1O6,mp-1214561
1.5542,-1.5567647766319457,V2Sb2Se8O24,mp-1216305
0.3552,-2.43668128425,Sr2Pr2Co2Ru2O12,mp-1218107
0.3193000000000006,-2.7978455070000012,Sr2Nd2Mg2Ru2O12,mp-1218129
3.5786,-2.610348746,Na1La1Mo2O8,mp-1220757
1.1794,-0.6040761720454545,Na10Sr2Nb2As8,mp-1220796
2.1259,-2.6151219177900002,Na1Cr12Si8Br1O28,mp-1221115
3.2464,-3.041540021203704,Mg20Ti2Sn2B8O40,mp-1222637
1.4255999999999998,-0.6107291982142856,Li2Mg1Cd1P2,mp-1222661
2.6061,-2.3382164403472223,La1Ag1Mo2O8,mp-1223057
3.8473,-1.012491539325001,H16N16O48,mp-1224772
1.9458999999999995,-2.1279877076250004,Dy2Te1S2,mp-1225289
1.8873,-2.1182814436250004,Er2Te1S2,mp-1225541
0.3912000000000005,-1.4149317074399999,Ca1Ce1N2,mp-1227227