band_gap,formation_energy_per_atom,full_formula,task_id
0.5194,-1.7369076237142862,K8Ru4O16,mp-17789
0.9514,-0.24974207575430984,Rb6Ge8Au2,mp-17830
2.8402000000000003,-1.9856347692212657,Rb12Ge4O14,mp-18224
0.37599999999999945,-0.7837987570000002,Ba8Sb8Te24,mp-18291
3.8869000000000007,-3.509184834583333,Ba4La8Be4O20,mp-18414
0.06920000000000004,-2.8859512469766018,Cs4Yb4P8O28,mp-18423
2.2303,-2.7585267073460003,Ba2Mn1W1O6,mp-19085
2.9975,-2.9489556144117643,K2Na2Fe2Si8O20,mp-19130
3.3914000000000004,-1.550682520000001,Ni2C2O6,mp-19147
3.9942,-2.436531748457792,Sr2Ni6P8O28,mp-19211
1.0848999999999998,-2.8246176753460004,Nd4Mn2Co2O12,mp-19336
1.5177999999999998,-2.9214574047499995,Sm4Fe4O12,mp-20243
2.1547,-2.1669881613437507,K1Fe1S2O8,mp-20968
1.4844,-2.572500091428572,Ca4Pb2O8,mp-21137
1.7336,-2.569540088966837,V8Cd4P8O36,mp-21665
1.6637000000000002,-0.2580796150000001,Hg2I2,mp-22859
0.7333000000000001,-1.7276493566042368,Rb8Co4Cl16,mp-23076
0.2826,-1.8538998664285715,Pr4Br10,mp-23169
2.2308000000000003,-0.20193577375000027,As2I6,mp-23218
0.7255,-1.5043358230249657,Rb2Ni2Cl6,mp-23486
3.0081,-0.657751654913333,Ca4H8,mp-23713
5.1855,-2.1893723518032147,Na12H4S8O32,mp-23780
2.7657,-1.749021888051579,K2Cr2Cd1H4O10,mp-24816
1.9223,-1.6737038550061538,Na2Mn3Cl8,mp-27126
3.4619000000000004,-2.2781416179285707,Tl8P8O24,mp-27144
2.8493,-2.2300525532260003,Pb8O4F8,mp-27355
4.0833,-1.791369431805938,Se4O4F8,mp-27367
1.4045,-0.08655010249999995,I2Br2,mp-27639
1.1719,-0.45523857,Mn1I2,mp-28013
2.9949,-0.6975071851381817,Co1Cl2O8,mp-28137
3.3875,-2.621599770028,Ta4Cl4F32,mp-28185
1.6657000000000002,-0.8034815455426131,Na8Ge4Se10,mp-28355
1.3764,-0.24906739285714305,Hg12Te8I8,mp-28579
1.8583,-0.8707301723556252,Ru2S6Cl16,mp-29568
0.6099000000000001,-0.4276832124285713,K4Cd1As2,mp-29585
2.5037000000000003,-0.7820076066666667,Sn4Br8,mp-29862
0.02700000000000013,-0.15376551800000016,Al12W3,mp-30336
3.2854,-2.3064448074264705,Sm4Te8O22,mp-3073
3.0549,-1.87026861348077,Na4Sb8O14,mp-30972
3.4508000000000005,-3.89907538784091,Ho6Ta2O14,mp-31416
0.5317000000000007,-1.6706745964430143,Dy24Se44,mp-32633
2.655,-3.0552487869318186,Tm4Sn4O14,mp-3334
0.2652999999999999,-0.33914850766666643,K2Sn2Sb2,mp-3486
1.6929999999999998,-0.10335643959375007,K28Li4Si32,mp-3949
3.2507,-3.037861434604167,Na8Al6Si6C1O27,mp-39823
2.0299000000000005,-3.3207076605000014,La2Te1O2,mp-4547
3.9273,-2.4631480967261905,Cd8P16O48,mp-4659
0.1778,-2.4357186477675,Cu1Sn1F6,mp-4701
2.494,-1.394988435178572,Al4Zn2S8,mp-4842
3.3435,-2.512463779250001,Ba2Ni1W1O6,mp-504723
2.7177,-2.6474971950000006,Gd6Sb10O24,mp-505046
2.3839,-1.326664236428572,Pb12Br8O8,mp-505284
2.4453,-2.401172190238096,V4P4Pb4O24,mp-505688
2.9574,-2.9561740974450563,Ba8Co4P8O32,mp-505731
0.8037999999999998,-0.7112587414963052,Cs7Au5O2,mp-510075
2.0744,-0.8234345744132661,Tl4P4Pb4S16,mp-510646
1.5819,-1.7300828498157141,K12Mn4O12,mp-540914
2.7416,-1.2264411303577774,Mn4N8O24,mp-542070
1.49,-0.905477457745164,K8La4P8Se28,mp-542078
1.9291,-1.036685698955078,Hg6Se6O20,mp-542115
3.033,-2.5496547406454075,K8Mo4P8O36,mp-542210
1.0923000000000005,-1.0698173563327926,K4Mn2P4S12,mp-542638
3.0204,-3.752489864843749,Gd8Si4O20,mp-542831
3.659,-2.7275336051373644,Sr4Fe8P8O32,mp-542976
0.4142000000000001,-3.0685272401136383,Pr6Ru2O14,mp-5433
1.2800999999999996,-2.3320479909375,Sm1Bi2Br1O4,mp-550111
0.24839999999999995,-0.4564619609635421,Ga2Ag2Se4,mp-5518
2.5328,-2.8010934108294934,Ti12Tl12P20O80,mp-554111
2.044,-2.5597448683192314,Re2Sb2O2F20,mp-554432
2.0132000000000003,-2.4050211146836507,K2Mo2P2Cl2O10,mp-554960
2.5368,-2.224255321423612,Zn4Bi8B8O28,mp-555880
0.3873,-2.7813990977991683,Mn6F18,mp-556560
5.5637,-3.8274567512785715,K6Zr6F30,mp-556689
5.065200000000001,-3.867113539351482,Ca12Ta12F84,mp-558235
2.2949,-2.448562013680588,K4Nb6Cl14O10,mp-559790
2.0841000000000003,-1.1741503655849763,Rb4Si4Bi4S16,mp-560051
4.7791,-3.73249170140625,Nd8Si4O20,mp-560132
2.7567,-1.1452575096744235,Sn2Se4Cl16O4,mp-560193
1.1395999999999995,-2.5908907987500007,La4Pd4O10,mp-560340
5.5583,-2.777579326655612,K4Be4P12O36,mp-560431
2.7496,-1.8757474016071431,Pr6Si4S16Br2,mp-560468
2.6642,-1.4196002366660707,K4La4P8S24,mp-560649
2.2612,-2.663378073083334,Gd3Fe9B12O36,mp-560751
1.6795000000000002,-1.2910270620714288,K6Sm2As4S16,mp-560964
1.1964999999999997,-2.4851438514062494,La12Ga4S20O4,mp-561076
1.9753,-1.2089884269597777,Rb6Zr4P10S36,mp-561527
1.857,-1.141342981031404,Rb4Sm4Ge4Se16,mp-567873
0.8380000000000001,-1.2543956206925002,Al8Hg16Sb8Cl32,mp-568001
0.038799999999999724,-0.7556481083333333,Ca4Bi2,mp-569535
0.1368999999999998,-1.0602924790625003,La24C16I24,mp-569686
0.7737999999999996,-1.5909643485844442,Nd16Te12N8,mp-570646
0.5362,-0.5974483297321426,Ga16Pb8Se32,mp-571171
2.635,-1.2486240062799336,Cs4Ga12S20,mp-573145
1.4764,-0.350633077547893,Cs6B2As4,mp-573658
3.1576,-2.9534835798750008,Sm12Ga20O48,mp-5800
0.6737000000000002,-0.21884947972222216,Tl4Ag4Te4,mp-5874
0.11160000000000014,-2.9054308142500007,Ba2Lu1Ru1O6,mp-6145
6.799099999999998,-3.58216288590538,Cs2Na1Sc1F6,mp-6204
3.6365,-2.381782640219311,Cs2Zr1Cl6,mp-638729
4.0726,-1.0719800949484348,Ba4Ca8P24N48,mp-6404
2.7019,-0.4328231057999997,Ba4Al4H20,mp-644097
0.32910000000000017,-0.1447830844761905,Na96Sn8Ge64,mp-645945
3.9764,-0.9634678285107142,P20N20Cl40,mp-652364
1.5383,-0.7599915245068058,Re12Se12Cl12,mp-676712
2.2101,-1.5593190493327278,Cu1As2Pb6Cl7O6,mp-677164
3.4662,-1.5954113075407321,K12La8N36O108,mp-680063
3.8508,-1.1171964940144996,Li64Si32N64,mp-684024
2.3675,-1.1507877960937505,Co16Te8Br16O24,mp-687088
6.5227,-3.9070255037829655,Rb1Yb1F3,mp-6952
5.3068,-2.3463323015067536,Sc2P6H12O24,mp-696457
0.1419999999999999,-0.491677283673333,Nb24H4I44,mp-696500
3.7653,-2.634020841020271,Na4Ni4B24O42,mp-704915
7.065899999999999,-2.1048178483832856,P4H12N4F20,mp-722832
2.0316,-2.711971687291667,Ti4V8O28,mp-752445
2.1166,-3.4403533052187503,Tm2Se1O2,mp-753920
0.8765999999999998,-2.8985580093790912,Tb4Mn4O14,mp-754207
3.5885,-0.6750242508333338,Pb2Br4O12,mp-754665
0.2858000000000005,-1.4312798028571438,Mg2Ni4O8,mp-755557
2.8048999999999995,-2.2817838017361125,Li4Co4B4O12,mp-756081
2.4556,-2.401218195261906,K4Cr2P2C2O14,mp-756910
1.9048000000000005,-1.868084361751429,Os6O12F24,mp-757594
1.4867,-1.4876581524783337,Na20Cu4H8O16,mp-757878
4.0002,-2.4086216524599995,Ge4F8,mp-7595
0.3731,-0.3477657107291676,Fe2Se4,mp-760
1.9881,-2.154837719000001,Li1V1C2O6,mp-762019
3.8758,-2.266734308845239,Na4Sb2P2C2O14,mp-768144
2.2105,-3.2236340772675014,Li4La12Mn4O28,mp-769464
2.7684,-1.7572285327264288,Li4Mn6Se8O24,mp-773051
5.485600000000002,-2.0466276342178125,Nd4H16S8N4O32,mp-774927
0.5052999999999996,-1.0505734985714288,Sr6P6,mp-7931
1.0238000000000005,-0.33852610875,Al2Cu2Te4,mp-8017
3.6599,-2.851318384166666,Y2As2O8,mp-8058
1.4987999999999997,-1.1182066525,Tl6Te1O6,mp-8387
0.7931000000000008,-0.7116615250000002,Ca1Mg2Sb2,mp-9565
2.0441,-1.1321213406271429,Ba4Na1B3N6,mp-9705
0.010499999999999956,-0.6251232388888889,Li4Yb8In4Ge8,mp-977355
2.9339999999999997,-1.8155658861975008,Sr16Li8Ta8N24F8,mp-979340
1.5736000000000003,-2.0133819259375003,Er2Zn2As2O2,mp-983603
0.6094000000000004,-1.2843033843750007,Fe1Au1O2,mp-996994
0.018999999999999684,-2.41997452735538,Cs4Na4F12,mp-998609
4.7621,-3.3987145378571433,Ba1Sr2Mg1Si2O8,mp-1019558
4.484,-3.014563096841837,K6La2P4O16,mp-1019793
4.7946,-3.1502768348369568,Sr12Be4B24O52,mp-1020637
3.392,-3.64665890925,Ba2Lu1Ta1O6,mp-1079705
3.8228,-1.6706627642413792,Cs2Sr2I6,mp-1080232
1.7986,-1.0567374941964292,Sr2Ga4Se8,mp-1104062
0.006800000000000139,-0.7733648528571432,Ba4Cd4As6,mp-1104453
0.3760000000000003,-0.7008960362500005,Sm6Bi8Au6,mp-1105248
1.0095,-2.4861922994375005,Pr2Er6S12,mp-1105696
0.3743999999999996,-0.2418161031249997,Li8Mg4Si4,mp-1105932
1.0598999999999998,-2.5210177926875006,La2Tm6S12,mp-1106294
1.0461,-0.31692085924999985,Hg4S16,mp-1106367
6.5419,-3.571786542489862,Cs2Rb1Sc1F6,mp-1111963
4.1517,-1.8400470234413795,Cs2Na1Nd1Br6,mp-1112145
7.7513,-4.4909237821425005,Tb4F12,mp-11347
1.2648,-1.4147530388749998,K1Nd1Te2,mp-11740
2.7584,-0.23927830852452125,Cs6Cd2H10,mp-1184118
0.5779999999999998,-0.023608068299999826,Mg149Zn1,mp-1185642
0.05600000000000005,-0.11478548250000033,Nd12Os4,mp-1188656
1.9962,-0.9661703847660718,Na4P4S12,mp-1189520
1.5994,-1.147097729847179,Rb12Hg2S8,mp-1190842
2.6608,-3.2029252442460314,Sr2Ti2P4O16,mp-1191111
0.3883000000000001,-0.7063877881316659,Lu6H18,mp-1191245
0.3415999999999997,-1.87854052873512,La8P8S8,mp-1191492
0.2385999999999999,-1.7736220670684535,Er8P8S8,mp-1191596
2.0272,-1.520556976881167,Fe2Bi4Se4Cl6O14,mp-1192577
1.8258,-1.8495389757825011,K1Fe3H6S2O14,mp-1192851
4.6326,-2.316826036083462,Li4Mn2S4O16,mp-1193172
3.2088,-1.4303892448854176,Bi4Se6O20,mp-1193554
2.2958,-0.7732391365972221,Ag4I12O32,mp-1194592
4.346500000000002,-3.1917969421976013,K10Y4Si8O26F2,mp-1195556
2.0104999999999995,-2.2170063832375,La32Sb8S60,mp-1195582
1.1107,-0.5869038589118306,Er4Tl8P8Se28,mp-1195632
1.7891,-0.5461918896598871,Cs6B6Se20,mp-1196535
0.8858000000000001,-0.7797558933219966,Cs12Nb8Se44,mp-1197158
3.6588,-1.4985543940041142,K4Zn2H24Se4O28,mp-1197205
2.1397000000000004,-2.6195724711722166,Cs2V2P6H2O20,mp-1197494
5.7163,-0.2136462852047621,Li4Zn8B20H80,mp-1198025
1.732,-0.6943153112303991,H48Pd4C8N24Cl16,mp-1198297
3.9132,-1.6163897106150005,Tl4Fe2H24S4O28,mp-1198334
0.4863999999999997,-0.44475174138529705,Cs4Ag28S16,mp-1198931
1.8207,-1.5341652065463371,Cs12V4S16,mp-1200171
3.4663,-2.662236167943333,In2Sb6F36,mp-1200631
3.7226,-3.1796897456672224,Ba10B6Cl2O18,mp-1201345
2.0825,-1.1973075381804397,Hf8Hg32P16Cl48,mp-1202310
2.4090000000000003,-1.0762352959752164,Cs16Te8S24,mp-1202720
0.005299999999999971,-3.23714616578125,Ba2Yb4Si6O20,mp-1202951
1.4463,-1.447248803825758,Ba12Sn14S40,mp-1204773
1.1518000000000002,-0.32499454950000023,Te12Rh2Br6,mp-1205332
3.6692,-1.523991903298612,Ge2Se4O12,mp-1205339
0.8336000000000001,-1.1104688229559998,Tl2Ni2Cl6,mp-1205652
3.3886000000000003,-3.6210953907500008,Ba2Er1Ta1O6,mp-1205803
5.3714,-3.0258835047588506,Rb2Sn1F6,mp-1206039
0.3346999999999998,-0.6333671933333337,Pr1Ni1Bi1,mp-1206667
0.8817000000000004,-1.6108240632812505,Li2Ta2S4,mp-1206881
3.0073,-2.1523648605328574,V6Pb10O24F2,mp-1207903
0.5696000000000003,-0.3870814450000001,Tl4Pt2I12,mp-1208181
4.0144,-3.7844198563330003,Sr4Ca4Cr4F28,mp-1208686
0.05840000000000022,-0.4177609733333334,Sm16Cd4Pd4,mp-1208955
1.5238000000000005,-0.10126960890548008,Rb2P30,mp-1209298
1.3879,-0.7164963696028325,Rb8Ga8Sn8Se32,mp-1209628
2.7591,-2.2383476453846156,Li2Fe1W2O8,mp-1210849
4.7715000000000005,-3.6234994500000006,Li4Dy24B12O56,mp-1211233
3.1184,-2.802017354375001,Li12Tm12Te8O48,mp-1211248
0.018599999999999728,-0.16821984358974346,Na40Zn14Sn24,mp-1211291
4.2693,-3.4892147063541668,Li4Pr24B12O56,mp-1211486
4.4694,-2.660192854832,K4Sm8Cl28,mp-1211516
2.8031,-1.991990027732632,Mn8Tl8Mo12O48,mp-1211724
4.3032,-2.3558832231,K8Mg2Mo6O24,mp-1211857
3.7526,-3.2098524211100004,K9Gd3Si12O32F2,mp-1211874
1.8440000000000003,-2.7466342043460004,Gd4Mn2Ni2O12,mp-1212655
0.34280000000000044,-0.5939456852040819,Er2Zn6P6,mp-1212805
4.341799999999999,-3.8446953941250013,Dy12Sc8Al12O48,mp-1213138
2.2705,-2.450850047569212,Cs4Rb4Mo12P12O68,mp-1213522
0.1291000000000002,-1.89285076076488,Cs2Eu2Ta12Cl36,mp-1213620
2.5635000000000003,-1.9196752453240733,Cr4Ni8B4O20,mp-1213761
0.3306,-2.4744575025680686,Cs12Ce4Cl24,mp-1214351
1.9354999999999996,-3.0479861987500003,Y4Cr2Sb2O14,mp-1216201
2.3713,-1.7877622944047624,Ti1Ni4Ge1O8,mp-1216682
4.5078,-3.7381035376388887,Tb10Si4B2O26,mp-1217661
3.2716000000000003,-2.879939884062501,Sr2La2Ga6O14,mp-1218197
0.5392,-2.6936663770833333,Sr10As6O26,mp-1218606
1.0694999999999997,-2.0132583674728264,Sm6Mn1Si2S14,mp-1219143
1.3201999999999998,-1.8686308868206518,Sm6Ge3S14,mp-1219159
0.3067,-0.492226746327997,Rb12Sn2As6O1,mp-1219774
3.8706,-2.425581860865384,K5Sm1Mo4O16,mp-1224359
1.582,-2.0224440160577086,La40Se48N8,mp-1224631
0.9899999999999992,-1.993977806820652,Dy6Mn1Si2S14,mp-1225409
2.667,-2.849824990371877,Cs2Zn2Fe2F12,mp-1225833
2.1463,-2.6556301079452624,Gd4Mn2Ge8O24,mp-1225903
1.4264,-2.765817787038544,Cs2Fe2Co2F12,mp-1226043
1.8609,-2.298556105271428,Dy2P4H10O20,mp-1226255
0.5087999999999999,-0.20877073083333408,Bi4Te4Ir4,mp-1227372
3.4841999999999995,-3.1780517536156463,Ba1Na4Ti2Si10B2O30,mp-1228057
2.1073,-3.2538957345833324,Ba6Ho4Mo2O18,mp-1228250
3.6377,-2.7231630850131583,Ba4Na2W2O11,mp-1228581
0.5033000000000003,-0.7372790547857143,La8Si8P24,mp-1232374
6.4632000000000005,-3.611024799614,K6Y2F12,mp-13230
3.7838,-2.7120152288062496,Na8Sn16F40,mp-13599
1.3432,-0.7105804674209774,Cs2Pt3Se4,mp-14338
3.4742,-3.2999358863802084,Ba18Sc6B18O54,mp-14972
4.282,-2.9258434507899995,Ba2Sm2C4O12F2,mp-15073
6.5301,-3.6085015677329646,Rb2Na1Ho1F6,mp-15318
5.2165,-3.070006042751667,K8Ga8F32,mp-15408
1.0705,-3.2156577175000014,Gd2Te1O2,mp-16035
3.1347,-2.073286254027093,Rb8Cr4O16,mp-17071
0.546,-1.3002412763200004,Au6F16,mp-17407
3.557,-3.6725186845833333,Pr4Ta4O16,mp-17722
1.4504999999999997,-1.3405990453602434,Nd6Si2Ag2Se14,mp-17827
3.1871,-2.7502046538014655,Mn8Be6Si6Se2O24,mp-18554
2.1729,-2.9575729906818182,Sr6Ho2Rh2O12,mp-18652
1.2344,-3.1667142157500017,Sr4Er2Mo2O12,mp-18744
1.586,-2.4375242147630765,Ba3Mn2O8,mp-19188
4.0385,-2.5178627237499995,Li6V2O8,mp-19219
0.3761999999999999,-1.0478716222499995,Co1Pt3O6,mp-19238
2.7155000000000005,-2.1941892937912084,Co6P4O16,mp-19264
2.2427,-1.5574936880555552,Ni1As2O6,mp-19384
4.9168,-2.073720632916667,Li2O1,mp-1960
1.2998000000000005,-1.6179674920000002,Na8Pb2O8,mp-20088
3.988,-2.5197908258585717,Ho2C1N2O2,mp-20374
1.0031,-0.7779061980952383,Ba2In4Te8,mp-21183
0.8491,-0.617132808311553,K4In24Se38,mp-21836
1.285,-1.8686086651988632,Ce8Se16O64,mp-21838
4.0245,-0.3819519379099994,Na1N3,mp-22003
0.03330000000000055,-0.6997042338888887,Gd1B2Rh3,mp-22117
0.0176999999999996,-0.2690312895833333,In2Cu2Te4,mp-22261
0.0040999999999999925,-3.572903221646668,Eu2O2F2,mp-22338
0.6366999999999998,-0.5657324794583336,Na2In2Te4,mp-22483
3.1117,-2.633053606493056,Co8B32O56,mp-22829
3.646,-2.85471380932,La2Cl6,mp-22896
4.0499,-1.5383374138400001,Zn2Cl4,mp-22909
4.633800000000001,-3.0208939524460874,Na4Be1Al1Si4Cl1O12,mp-23151
1.8227,-0.7660617666177774,Pt6Cl12,mp-23290
2.4973,-2.149662054365264,Ca4Mn2As4H8O20,mp-23716
5.0712,-0.7947980770925005,H8C2N4O2,mp-23778
1.2346999999999997,-1.1518159017812502,Na4S4,mp-2400
5.072699999999998,-1.2250102890188337,H32S4N8O16,mp-24468
2.5612000000000004,-2.1315992401789545,Co7P6H4O24,mp-24516
5.3705,-1.1610268388167564,Al8H144C24N72F48,mp-24554
0.06780000000000007,-0.4679489199999996,Lu1Hg1,mp-2522
0.8672000000000002,-2.530255195714288,Mo8P14O48,mp-26744
0.02149999999999963,-0.14532253500000006,Mn2Ir2,mp-2728
3.4393,-1.504813930475,Tl4Pb8Cl20,mp-27283
3.0446,-1.5178414030888892,As3H5O10,mp-27404
0.4112,-0.2986679662500005,Tl1Bi1Te2,mp-27438
4.9362,-2.727978783695,Y2Cl6,mp-27455
0.6892,-0.3318063544166665,K4Ag2Bi2,mp-27549
1.4512999999999994,-1.9089180273286923,Rb2In4O7,mp-27563
2.2581,-0.8431063689835165,P8Pb12S32,mp-28140
4.9602,-2.361318843827,Ge2S4F24,mp-28291
0.16389999999999993,-0.9031809606547618,Ba4P12Pt8,mp-28373
1.6936,-1.50811354696875,K16Zn4O12,mp-28382
5.279299999999999,-1.397514321557778,Ba2Cl4O12,mp-28512
1.3746,-2.686914965003462,Sr14Mn8O30,mp-28761
2.0742000000000003,-0.9259543570451046,Rb12Bi4Se12,mp-29168
1.5290999999999997,-1.467537572256945,Ca8Sb8S20,mp-29284
0.8572999999999995,-0.9750015199206354,Ca22In2Sb18,mp-29722
0.8504,-2.0724161438799995,Nb12Cl20O8,mp-29924
1.4233000000000002,-0.2705436581000001,Na24As56,mp-30233
4.8813,-1.1161133988925007,Nd2Cl6O24,mp-31067
1.5808,-1.2573507049520003,Li2Zr1N2,mp-3216
1.6090999999999998,-0.14441880673958266,Na2Al2B28,mp-34763
6.3332,-0.4199523626077776,Na2B2H8,mp-38725
0.6579999999999995,-1.3271690520312511,Li1Cr1S2,mp-4226
0.6803000000000003,-0.639051291057693,Ta4Pt6Se16,mp-4425
1.8728,-1.9318782841466664,Gd8Br12N4,mp-505435
2.3884,-1.873182449676724,Cs2Sb2O4,mp-510273
1.7629,-0.8079688668660715,Cd2P2S6,mp-5328
1.3403,-1.1390577088779041,Rb8Re12S26,mp-541057
0.7515000000000001,-0.510685604758523,Nb4Se18,mp-541106
5.1175,-3.1636834265220557,Cs4Y4P8O28,mp-541412
3.2684000000000006,-1.8647319154583333,Na8Te4O12,mp-541619
5.1981,-2.7657904840812804,Na8Ca2P12O36,mp-542280
4.3313,-2.9319448021203702,K8Na4Si12O30,mp-542686
1.6805999999999996,-2.4430917825950003,Sm1Bi2Cl1O4,mp-546152
0.8141999999999996,-1.2002060535714278,Co2Rh4O8,mp-546936
2.0106,-1.0292669146367,Cs4Ge4Bi4S16,mp-553970
1.6333999999999995,-2.2678574352187497,Na1V1S2O8,mp-554124
3.1287,-3.4605639671361534,Sm2Ta2Cl2O7,mp-554623
4.3894,-2.436563180946331,Cs4Y4Se4Cl8O12,mp-555160
4.5404,-3.0594925115781253,Na8Be8Si12O36,mp-555182
2.6211,-2.8611449341140003,K3W1F6,mp-555403
4.4404,-3.590296971463484,Rb2Zr2Mn2F14,mp-555669
1.5892,-1.9413844611197923,Pr6Cu2Si2S14,mp-555893
4.0973,-2.6359010057390884,Si4Ge6P12O50,mp-555982
1.8402,-2.5576505175250004,Pr40S56O4,mp-556056
2.5911,-2.697474407670068,Sr1Fe2P4O14,mp-556067
1.9083,-2.8282841767857145,Ca2V4P4O20,mp-556243
3.9703,-2.009907186992728,Te4As4Cl12F24,mp-556325
1.5236,-0.8687612241054175,In2Sb4S8Cl2,mp-556541
2.2521,-1.862585197510536,Rb8Na24Sn8O32,mp-556968
5.4112,-3.006789761898148,Li4Al4B8O20,mp-557104
5.3413,-3.0892684682554896,Sr8B20Cl4O36,mp-557330
2.1998999999999995,-1.8130105850245453,Mo2Pb6Cl4O10,mp-557563
1.6190000000000002,-2.2290167173210707,Gd8Au20F84,mp-557726
3.0723,-1.6877120542238888,In4Te4Cl4O12,mp-557992
4.2341,-2.3250933384687498,Ca4Se4O12,mp-557997
1.7969,-2.642034641931112,V8Ge4O16F8,mp-558123
5.3009,-2.8258683319166678,K8Na4B36O60,mp-558293
2.1275,-1.8363460113362076,Rb16Fe16O32,mp-558337
0.32799999999999985,-1.5680121884745133,Cs8As16Pd12O56,mp-558846
3.628,-1.668407803964,I4O4F12,mp-559377
3.5005999999999995,-2.9360155531730774,Nd8W8O36,mp-560076
3.1258000000000004,-1.892163759765625,Mg4Se4O16,mp-560670
1.1391,-1.6135210445416668,K8Pb4O12,mp-561277
2.8457,-1.8296041464224135,Cs4Sm4Si4S16,mp-561635
2.9613,-2.1027913309687505,Ca6Co2Se8O24,mp-561911
3.8516,-1.41444507009,Ga8Cl16,mp-568848
1.5130999999999997,-0.6903439170971367,Cs8P4Se18,mp-569193
3.1084,-1.081995623358,Te8Cl32,mp-569561
0.4821000000000009,-0.5460414258333325,Si16Ru8,mp-569815
2.0105,-1.1122817976483326,Sr18Mo6N24,mp-570046
0.5162000000000004,-0.9647244479166668,Hf3Tl2Cu2Se8,mp-570700
0.5863,-1.514674483482143,Dy4Cd2Se8,mp-570959
0.7257,-0.4569400724285713,K4Zn1As2,mp-571461
1.9852,-1.8723891054640007,Sb2Br2O4F12,mp-572526
3.4407,-1.9982023146351848,Al16Ag8Cl40O8,mp-572634
4.8492,-2.2453309947334485,Cs1Cl1,mp-573697
4.9486,-2.5040056253180696,Cs24Nd8Cl48,mp-582081
4.0477,-3.03072585278,Y2H2O4,mp-626151
5.4815,-2.5436584097788457,Na4Ca2S4O16,mp-6397
0.8807999999999998,-1.7490667291399995,La16Te12N8,mp-641010
0.7772000000000001,-2.6876282006944447,Ca8Ga4Fe4O20,mp-648069
6.1363,-3.0990124719553784,Cs2Li1Ga1F6,mp-6654
2.9374,-1.4686984929760118,Cs14Cd6Br26,mp-667295
5.2445,-3.012738399097333,K2Na1In1F6,mp-6686
0.2173999999999996,-1.2537076382183907,Cs1Y10C4I18,mp-669309
2.864,-1.3865165191116071,Ta2P4N2Cl24,mp-669508
1.4766,-0.8400921448485216,Cs8Re12C8S18N8,mp-683929
1.1167000000000002,-2.05356157232143,Ho4Cd2S8,mp-6942
1.7147,-1.2981383580295338,Sb4H40Cl24O18,mp-696088
4.1415,-1.7577002264796548,Cs2Li4H6O6,mp-697181
3.2944000000000004,-1.8926150894206248,Nd8H32C24O64,mp-698317
4.7241,-1.333006949757784,P4H32N8O14,mp-703476
1.7916,-1.4319640730949998,Hg2F2,mp-706
5.7763,-2.25737813295,Zr4H24N4O4F20,mp-707811
2.4273,-1.2347533844635714,K16Ge4H16N8O12,mp-720197
3.5643,-1.6549401190724993,Ca8H32N8Cl8O40,mp-720586
4.9182,-1.5977887513881266,Cs2Mg2H24Cl6O12,mp-721171
5.3375,-3.0641375793948664,Cs2Sn1F6,mp-7297
5.4414,-3.5812458209166658,Ho6B6O18,mp-752713
2.995,-2.4650610627236507,Li2Cr2P2H2O10,mp-753051
0.9095,-2.9096792657427284,Dy4Mn4O14,mp-755869
1.4683000000000002,-2.7528294107738094,Ti13Fe15O42,mp-757320
0.027499999999999858,-0.5296276450000003,Nb2As4,mp-7598
1.1839000000000002,-1.6430669795,Li2Pd1O2,mp-7608