band_gap,formation_energy_per_atom,full_formula,task_id
1.6908,-1.935619521476443,Rb2Mn12As14O48,mp-556158
0.6885000000000001,-0.8358982938333334,Ag20Ge4O16,mp-5563
3.2412,-2.56083244675,Ca4Bi2As2O12,mp-557070
5.4624,-3.0177830143503033,Cd8B16F64,mp-557364
2.8753,-2.1687110266293113,Rb12Ge24O54,mp-557372
2.9738,-2.6852386735663223,Cs4Re4O4F24,mp-557451
0.1541999999999999,-2.6882081405751883,Na2V6P6O24,mp-557634
1.4032,-1.733677834612159,Sb4Se4I12F24,mp-558026
2.9535,-2.1473073744374997,Sc4Te10O26,mp-558571
1.8633,-2.1421437637817458,K6B2Sb8O26,mp-558607
2.2234000000000003,-3.51220951284091,Ba2Sr2Ta4O14,mp-559151
2.1770000000000005,-1.6618498511699518,Rb16Hf8S32,mp-559228
0.9519000000000002,-1.3700534960105364,Rb2Ba8Sb6O2,mp-559270
3.1242,-2.8314957904662434,Na40Ti8P16O72F8,mp-559314
1.5714000000000006,-0.6049530937053577,Tl24As8S24,mp-559356
3.3822,-2.0190739940647497,Sr4Mn4Se8O24,mp-559818
5.609,-2.0766162129757144,P2N2F4,mp-560008
4.8154,-3.61423423578125,Ba2Y4Si6O20,mp-560478
0.3148000000000002,-1.7627551594270827,Ba6Hg6Ru6O30,mp-560702
3.7232,-3.0342318586617654,Na6Sc4B6O18,mp-561018
3.1402,-2.1037761730390634,K6V2S2O6,mp-561048
2.5985,-1.7893914225667047,Sb4Se4Br12F24,mp-561328
5.211499999999999,-3.2442938726189983,K1Na1Mg2Si4O10F2,mp-561491
7.1052,-3.7284907678523047,Cs8Ca8Be12F48,mp-562057
1.2232,-0.6488877916210933,Nb12Se40Br12,mp-567731
1.8404,-0.7378107289519988,Sr6Li6Ga6N12,mp-568385
1.9200000000000004,-1.2255191657109086,Cu8Mo24Cl56,mp-568397
0.8429000000000002,-0.3915695264999997,Nb6Sb4Te10,mp-569571
1.1204999999999998,-0.4374238894857143,K8P12,mp-569857
1.646,-1.0772264764134964,K48In8Se36,mp-570411
1.1727,-0.4582169089583334,Ta8I40,mp-570679
3.0259,-0.6402653751388891,Al4In4I16,mp-571260
5.0878,-2.50824825099738,Cs2K1Tb1Cl6,mp-580631
3.3252,-3.864828853295456,Nd4Zr4O14,mp-5977
6.7576,-3.5891184222640002,K2Na1Sc1F6,mp-6058
0.04240000000000005,-2.7581326150873022,K4Yb4P16O48,mp-616490
4.8175,-3.353366599568965,Mg4Al8Si10O36,mp-6174
3.7396,-2.288814636372857,Nd2H6O6,mp-625397
3.7453,-2.279222346730001,Pr2H6O6,mp-625447
1.0730000000000004,-1.1550745855312499,K2V2Cu4S8,mp-6376
2.678,-1.9361431426250009,V8Bi8Pb16O48,mp-640883
3.5221,-3.377503235455767,K2Li6Ca14Ti4Si24O72F4,mp-641919
4.9758,-1.8270124427610002,Ba2H10Cl2O6,mp-642834
2.701,-0.7951811045342855,Ca4H16N8,mp-644307
4.1737,-3.179984342657407,La8B28O54,mp-645962
3.1903,-1.6627773246262505,Sr4Ni8Te12Cl8O32,mp-646605
2.4399,-1.2771646476875005,Na2S1,mp-648
5.0452,-3.1787294972991065,Mg4Al4P4O20,mp-6596
2.244,-0.9649320154615098,P4Se4Cl36,mp-662547
0.6923999999999997,-0.13253589449999978,Pt8I32,mp-669496
1.7744999999999995,-1.2603990781435002,Tl64Cl96,mp-680294
0.3033999999999999,-0.1558248335676397,Rb16Pb36,mp-680463
0.9267,-1.7422480443453954,K2Ho4Cu4S9,mp-680679
2.66,-3.223909053730159,Li8Ti10O24,mp-685194
0.5616000000000003,-0.43288779429687496,Sn4Se4,mp-691
4.8687999999999985,-3.307841353135417,K2Ca4Be4Al2Si24O60,mp-693620
2.5761000000000003,-2.7425385429916678,Na8Ca4Ti8Ge12O48,mp-695511
7.0819,-3.4853531551618526,Rb1Be2F5,mp-696736
2.8711,-1.5190543522719733,Na4Cd2H8Se4O20,mp-697888
4.8975,-2.411611919059353,Rb4Te4H4O4F16,mp-698479
2.8711,-2.5453306456530607,Ca1Fe2Sb2P6O24,mp-698695
3.9034,-2.33456767096875,Ba2Se2O6,mp-6989
3.1008000000000004,-2.619931091243206,Be6Fe8Si6Se2O24,mp-704536
4.7771,-1.4355132921244442,Zr2H24C4N12F12,mp-707343
1.209,-0.12300791608482127,Hg4P4Se12,mp-7293
3.3006,-3.901117586302084,Tb8Ti4O20,mp-752414
4.0775000000000015,-1.9180314491524175,Rb4P2H6Se2O16,mp-753854
1.7675,-2.2587720217412293,K6W12O39,mp-757860
2.6232,-0.5820172098911114,Hg2Cl4O12,mp-761037
2.3822,-2.506218942638889,Ba8Sb8O20,mp-765493
4.3432,-2.7581078992619057,Na4Sc2P2C2O14,mp-767518
0.3805000000000001,-2.759467789460944,Sr16Mn8O29,mp-767781
5.9222,-2.809292066893382,Ho4S6O24,mp-768978
3.3455000000000004,-3.5027330700520833,Sr10Ta8O30,mp-769582
3.3,-3.9085416544270832,Dy8Ti4O20,mp-770816
2.5355,-3.25477316675,Tm4Cr4O12,mp-777295
1.6987,-0.7640460657219824,Cs1Cu3S2,mp-7786
0.6318000000000001,-1.5361693344062504,Na2Nb2S4,mp-7937
1.7433,-0.6658836211899999,Ga2N2,mp-804
2.9755,-1.2698991920535707,Sr2Al4Se8,mp-8422
5.8812,-2.1335189712885003,S4O8F8,mp-8537
1.1285999999999996,-0.7524037904375007,Ir4S6,mp-861979
4.5158000000000005,-2.8012983755805085,Cs3Ca3C3O9F3,mp-862701
0.3752,-1.4596473818749995,Li1Cu1O2,mp-9158
1.2214999999999998,-0.4483683651293102,Rb3Sb2Au3,mp-9274
1.4085,-2.3241878697916665,Al2Ag2O4,mp-9631
0.9503999999999996,-0.4859603445357141,K4P2Au2,mp-9687
0.1538999999999997,-0.6535719454999999,Sr4Ga8As8,mp-972120
3.4465000000000003,-2.6469164219270827,Ba3B3As3O15,mp-9784
5.9026,-3.0870558952329654,Rb2Na1Ga1F6,mp-989400
0.3077000000000001,-1.443984981281666,Mn1Ag1O2,mp-996995
0.7660999999999998,-1.0769351612500002,Pr1Tl1Te2,mp-999288
4.246,-2.9941657270767035,Cs4Al4B4O14,mp-1019602
4.6544,-2.9069005381624606,Cs8Ba4P8O28,mp-1019603
0.15939999999999974,-1.1495662382799996,Eu8Mg24Si8N32,mp-1019726
5.5211000000000015,-2.303007550937501,Mg2S4O14,mp-1020122
0.0823999999999998,-0.2832437055555553,Tm1In1Cu4,mp-1024957
6.6232000000000015,-4.18138769746,Ba1F2,mp-1029
1.9964,-2.438601424470834,Ba2Mn2Se2O1F2,mp-1080029
2.0409,-0.4839039845433331,O4F8,mp-1095223
0.08599999999999985,-0.24323701401909698,Ag16Sn8Se24,mp-1096812
2.6361,-1.6941654119971925,Cs3As2Cl9,mp-1104872
1.7013999999999996,-1.1675612211562498,K2Nb2Cu4S8,mp-1106233
2.0571,-1.1669658694080458,Cs2Sc1Ag1I6,mp-1112938
0.3325,-0.4243072780520691,Cs24Re16N40,mp-1118943
1.7421000000000002,-0.3088392941563633,Na8Mg8Ni4H24,mp-1180690
2.1361,-2.309288703779933,Cs8V8S8O48,mp-1181965
0.8388,-2.649248227916668,Ba2Nd2Fe4O10,mp-1182187
2.9989,-2.6900766216666674,Al2W2O8,mp-1182867
0.0024999999999999467,-0.0175857402666666,Mg149I1,mp-1185590
3.839,-3.63438648925,Sr4Ho2Ta2O12,mp-1189408
3.5375000000000005,-2.197217077468945,Zn3P2Pb3W1O14,mp-1190321
4.9737,-0.4615287311175755,Ca2B4H16,mp-1190619
0.04330000000000034,-1.9793816857812512,Pr4Eu4Cu4S12,mp-1191152
0.041200000000000785,-0.6416005949999999,Li8Dy8Sn8,mp-1192210
4.5310000000000015,-3.288762329623,Na5Nd4Si4O16F1,mp-1192521
2.0941,-1.3439179998369228,Mn6Sb4I8O8,mp-1193915
3.4736,-2.551280199268781,Rb8Cd4P8O28,mp-1194560
3.9448,-1.9618492615104168,Tl4Bi4S8O32,mp-1194570
2.8782,-2.8717671788137262,Na4Dy4B4Te2O20,mp-1194796
2.349,-0.8524430169572916,Hg16Bi4Se8Cl20,mp-1194941
3.3658,-2.7812653115005563,Ba6B6Pb4Cl2O18,mp-1195317
2.0479000000000003,-2.208970729796629,Cd12B4P4O28,mp-1195436
2.1584000000000003,-1.8284663489251856,Ba18Ta6N18Cl12,mp-1195508
4.9264,-3.3458360888544263,Rb8Lu4Si16O40F4,mp-1196570
0.06990000000000007,-0.3160781699295775,Dy26Zn116,mp-1197303
1.9696,-2.2459639971541456,Cs4Sb8P4O32,mp-1197959
4.1785,-3.33991909142,Ba24Mg24B24O72F24,mp-1198065
0.02119999999999944,-0.2760900951724146,Nd16Rh24Pb76,mp-1198232
1.4544,-1.0900011417266666,Al12Bi48Cl48,mp-1198361
2.5724,-2.2246784198062883,Ag4Sb4S4O8F24,mp-1199019
0.9655000000000004,-2.3023704397265634,Gd8Zr4S20,mp-1200036
5.6718,-3.049389252962455,Tm12P36O108,mp-1200186
3.3891,-1.3634958445391068,K4H12Se8O32,mp-1200593
3.5354,-3.797031506562501,Ba4Sm8Sc8O28,mp-1200892
4.9701,-2.8786065764856352,Ba6Al4B20H8O46,mp-1201953
3.5073,-2.0308501429041668,Na12Sn6S36O126,mp-1202012
4.7728,-2.977777373997407,Sr8B20H4O40,mp-1202819
4.1608,-1.9701385079479168,K8B8Se12O40,mp-1202890
2.8701000000000003,-1.8001337893381244,Gd8H8Se16O64,mp-1203437
0.027699999999999392,-0.6651339183333328,Y3Ag3Ge3,mp-1205828
4.9407999999999985,-3.7878846610125,Hf1Mn1F6,mp-1205992
3.0898,-3.5617098010294437,Tm2Ti2Cl2O6,mp-1207686
5.0361,-1.09340299498625,Y2Cl6O24,mp-1207720
6.2596,-4.1577717383925,Sr2Zr2F12,mp-1208602
0.7652999999999999,-2.7226205936979166,Sr20Re12I4O60,mp-1209401
0.014899999999999913,-0.4768564233333332,Lu16Cd4Pd4,mp-1210768
4.3106,-2.70452472696875,K2La2S4O16,mp-1211400
1.3477,-1.5190492962407167,K2Rb4Fe2O5,mp-1211726
6.6726,-3.7408561027437504,K8Nd4F20,mp-1211860
0.03690000000000016,-0.30639220283018875,Dy12Ta8Al86,mp-1213274
2.9565,-1.3490010269569908,Cs4W12Cl28,mp-1213572
1.7793,-0.8008459522323991,Cs4Cu4Te4S12,mp-1213683
3.1458,-3.5281311192500002,Ca4Sc2Nb2O12,mp-1214125
2.0007,-2.742917755572916,Ba10Re6I2O30,mp-1214601
4.4131,-1.6621611034554693,Al2H10Se4O16,mp-1214960
3.7132,-1.7731194584210528,Zn2Ga4Te8O24,mp-1215782
2.2445000000000004,-2.4937786205149504,V4Cd10P16O56,mp-1217403
0.30630000000000024,-2.8309478400000003,Sr2La2Mg2Ru2O12,mp-1218208
4.4102999999999986,-3.1458318562100005,Na8Mg8Si24O60,mp-12187
1.8798,-2.8695691152760916,Rb2Cr2Co2F12,mp-1219598
1.6896,-0.4721761223621319,Re12Se14Br8,mp-1219630
3.667100000000001,-2.2197729608232644,P2H2Pb2O8,mp-1220034
0.009199999999999877,-0.1256351225833332,Na4In4Sn8,mp-1220784
0.2591999999999999,-0.6062621884090909,Na10Eu2Ta2As8,mp-1220860
3.8803,-2.7326557559523814,Li6Al6Ge6O24,mp-1222525
3.0014,-2.1502690144,K2V6Pb8O24,mp-1223484
1.8027000000000009,-3.0206389519318178,Gd4Cr2Sb2O14,mp-1224730
1.2969,-1.1400784703124995,Dy2Cu6S6,mp-1225724
4.2448,-2.774437105371878,Cs2Ga2Ni2F12,mp-1225948
0.24190000000000025,-0.00494693125000012,Bi3Sb1,mp-1227319
4.173,-3.4409779326322223,Ba3Sr9Al4O16F4,mp-1228149
0.008700000000000152,-2.301558115083333,Ba2In1Bi1O6,mp-1228393
2.6815,-0.9730961152102502,Ga2Hg6As2S2Cl8,mp-1238685
1.5476,-1.0853413018678155,Cs2Dy2Cd2Te6,mp-12487
1.5971000000000002,-1.9958703677675,Zn1Pd1F6,mp-13983
2.4192,-2.0865616578749995,Na40Al8O32,mp-13998
1.0720999999999998,-2.028439004464286,Lu4Mn2S8,mp-14305
3.2830000000000004,-3.6444856249218742,Ba3Tm4O9,mp-14322
6.1005,-3.494401381739113,Cs2Ca1F4,mp-15157
1.6405000000000003,-1.092996569676724,Cs12Cu20O16,mp-16543
7.0123000000000015,-3.9043077428766666,Li2Ca1Hf1F8,mp-16577
2.9726,-3.1806523410833343,K6Ta6Si4O26,mp-16855
0.6658000000000008,-0.4529840941666663,Si16Os8,mp-17123
2.8214,-2.017452294302083,Sr4Co2Se6O18,mp-17540
4.1287,-2.33753112468254,Li36Mo18O72,mp-18050
3.0625,-2.8669169944999995,Na4Co2Si8O20,mp-18096
0.008100000000000662,-2.6151911888616075,V4P2O10,mp-19007
2.4126000000000003,-2.5367961144846936,Na6Fe2P4O16,mp-19028
3.938,-2.4027680543269225,Na10Tb2Mo8O32,mp-19469
0.015400000000000082,-0.3947127789999996,Eu2Zn4Ge4,mp-19808
0.4336000000000002,-0.5353339930952382,Fe2P4,mp-20027
1.2722000000000002,-2.680896216346001,Ba2Mn1Mo1O6,mp-20399
0.3357000000000001,-1.333197929062501,Zr1Se2,mp-2076
0.7833,-2.9463851453967713,Rb6Cr2F14,mp-20919
0.7267000000000001,-0.7502738914635417,K8In12Cu4Se24,mp-21713
0.007500000000000284,-0.4636966513888889,Eu2In8Pd2,mp-22008
2.2536,-1.9975942525083328,Na6In4As6O24,mp-22804
0.9539000000000002,-0.726185424963333,Ag1Cl1,mp-22922
0.7763999999999998,-0.7281987727533336,Te2Rh2Cl2,mp-22945
0.9633,-1.11659944182,Re6Cl18,mp-23174
5.6177,-2.250998962173333,Mg1Cl2,mp-23210
4.0967,-1.121820686875,Al4Br12,mp-23288
3.8084,-1.4109580707729892,Rb4Li8I12O36,mp-23626
3.3110000000000004,-1.6378347026119315,Rb4H2Br2O2,mp-24007
0.03479999999999972,-0.4514446242857143,Sr1B6,mp-242
1.8972,-2.5212066511989795,V4P4O20,mp-25265
1.6249,-2.8516637091666066,Li2V2P2O8F2,mp-25423
0.9198,-2.4127887218668844,Li2Co2P4O14,mp-26995
2.4397,-2.066539899761666,Sn4I2F6,mp-27167
2.6968,-2.7874150172500007,Mg2V2O6,mp-27186
1.5674,-1.657241031461819,Al4Pd2Cl16,mp-27452
0.9081,-0.2511944116666669,Pd4I8,mp-27747
2.9384,-0.8903400116666665,Cd2Br4,mp-27934
3.3542,-0.7643597677753574,Si8H8S12,mp-28090
3.5074000000000005,-2.651345223846154,Ta4Zn6O16,mp-28251
1.6077,-0.5141100064374996,Ga4Te2Se4,mp-28423
1.8253,-0.6374534108333334,Tl6Cd4I14,mp-28432
2.7415000000000003,-2.293842126369732,Cs16Zr4O16,mp-28543
2.0161,-1.093537468697917,K4Na4Se4,mp-28595
3.0693,-2.3175250397527467,In12P8O32,mp-28708
3.5114,-2.812071673564,K8Sn8F24,mp-28774
0.03059999999999974,-2.2935690177083337,Ba2Pd1O3,mp-29352
1.2857,-2.159005692590001,Zr12C2Cl28,mp-29357
2.0481000000000003,-0.8768221034749999,Cl4F4,mp-29504
2.8895,-3.144917329583334,Gd2Br2O2,mp-29797
0.7624999999999997,-0.8138896621223528,Bi4Te14Cl16,mp-30097
3.0671,-2.200931793848485,K8Ge18O40,mp-30962
0.8486999999999998,-1.7919782659305268,Rb12Te4O18,mp-31039
3.6261,-3.5236789325,Sm6Ga2O12,mp-31110
1.1543,-0.5144262137244903,Ba4Te8P16,mp-31275
2.2207000000000003,-3.6089829482500018,Ba4Ce4O12,mp-3187
1.2071999999999998,-0.7118379170734133,Sn1P2S6,mp-36381
0.5765000000000002,-0.3672885075000005,Tl2Ga2Te4,mp-3785
0.2936999999999994,-0.9063195516666672,Ho1Ni1Sb1,mp-4174
4.9186,-1.935199780702,Si4N4O2,mp-4497
5.0422,-2.7098927267785715,K8P8O24,mp-5039
0.030899999999999924,-0.4935859725,Sm6Ga4Ni12,mp-504614
1.91,-1.104109826107451,Cs2P2S6,mp-504838
0.10050000000000026,-1.5434270316874998,Sc7C1Br12,mp-504921
2.6609000000000003,-1.7627156373515325,Cs16Te16O40,mp-504924
1.4358,-0.5404936416840279,In16Se16I16,mp-505357
3.4145,-1.740661075535714,Pb8C4O16,mp-505702
1.4342,-1.441797020416666,Li4Cu4O4,mp-5127
2.1666000000000003,-1.4749510974404758,Dy8P8S32,mp-5241
1.6980999999999995,-1.0619267074375005,Ga4S6,mp-539
1.4048,-0.3522551283854164,Tl8Ge8Se20,mp-540818
0.22170000000000026,-1.1050814027499996,Sc7Co1I12,mp-541175
0.9082,-0.7381691720229232,Rb8Tc12Se24,mp-541355
3.9436,-2.8812990887500005,Li12Zr4O14,mp-5418
1.7627000000000002,-2.1905802388616085,Fe4Co4P4O20,mp-542157
0.3480000000000003,-1.9918077012742856,Na4Mn8O16,mp-542710
1.2890000000000006,-1.0897808698149998,Na1Ta1N2,mp-5475
0.7612,-2.4232010466590923,Eu12Mo20O78,mp-553893
2.2474,-2.3071426674062847,Mn8Bi4P4O24,mp-554449
1.5229,-2.958813610793333,Li4Cr2F12,mp-555112
2.2985,-3.017693768419118,Ba17Ho16Zn8Pt4O57,mp-555188
3.0624,-2.2249772184375005,Tm4Te10O26,mp-555236
4.9369000000000005,-2.63196756781479,P4Pt1F12,mp-555863
2.7393,-1.9408803650542867,Pr6Si4S16Cl2,mp-556179
2.8638000000000003,-2.194892889613637,K12V12As8O56,mp-556255
2.9180999999999995,-2.870492542053572,Ca2Ta4Bi4O18,mp-556697
2.4357,-0.9914374011904772,Tl8In8Si8S32,mp-556744
3.8608,-2.9049151809833327,K4Si6Sn2O18,mp-556797
4.565,-2.577021922358814,Rb8P24Pb8O72,mp-557256
0.22779999999999975,-2.073175684688776,Tl16Cu16P24O84,mp-557258
1.7528,-2.295609350916666,Na6Ca4Bi2O12,mp-557506
2.4773,-2.053506105423612,Na8Ti4S8O4,mp-557845
2.7656,-1.7442627017093186,Cd8H8S4O24,mp-558011
1.0566,-0.975167431845238,Cd2In4S8,mp-559200
3.0031,-2.2204063604374995,Er4Te10O26,mp-559304
4.2182,-1.6678319178513936,Rb2Mg2As2H24O20,mp-559463
2.6595,-1.8237472886629529,Ti8P8Cl56O8,mp-559493
4.7165,-3.2054804770625003,K12Nd4Si28O68,mp-559608
1.9339,-1.0814002077726297,Cs8Cd4Bi8S20,mp-559668
2.3566,-2.658097572763975,Sr2Mo4P8O32,mp-560050
4.8271000000000015,-2.582554479977041,Na8Zn8P24O72,mp-560174
6.8323,-3.6634001413766666,K4Na2Al6F24,mp-560176
6.0588,-3.9474259327830006,Ba4Na4Zr4F28,mp-560732
2.1485000000000003,-2.0520632657503857,Tl4V5Cd1Cl1O15,mp-560760
3.6565,-3.1335311557500005,Sr4Dy2Sb2O12,mp-561072
3.3341,-1.5625448491524494,Rb6Y3N15O45,mp-561251
3.3193,-1.773154711595556,Co1Sn2H12O6F6,mp-561571
1.1270000000000002,-1.2764338083463542,Tb6Cu2Ge2Se14,mp-567428
5.0573,-2.447735804474965,Rb2Na1Tm1Cl6,mp-567498
1.3126,-1.2117955595210728,Rb2Sn1Br6,mp-569028
0.1418999999999997,-0.7361047565348215,Na4Ce4P8Se24,mp-569618
1.6719,-1.087300984313846,Tl2Hg2Pd1Cl8,mp-569675
2.1286,-1.0550138911877396,Rb2Te1Br6,mp-570324
2.1630000000000003,-1.325080261483076,Ca10Si4N12,mp-571333
3.0005,-2.209653727988,Re6O18F6,mp-573051
1.8366,-0.8621949991475101,Cs32Si8Te32,mp-574224
1.2615000000000005,-1.091094228561422,Cs2Lu4Cu6Se10,mp-581696
2.5188999999999995,-1.1308287872410716,Na12As4S12,mp-5830
3.951,-3.0703969640300004,Ho2H2O4,mp-626173
4.5578,-1.6680798129410714,P4H4S4F8,mp-642795
4.1339999999999995,-1.8500385383391669,Fe2H4S2O10,mp-643564
2.8259,-2.607903774204546,Gd4Ga4Ge8O28,mp-651847
2.338,-2.7966094885212502,Sr20Re12Cl4O60,mp-667283
5.21,-2.338823450789333,Li9Er3Cl18,mp-676361
5.2584,-2.1383104030838056,K4P1H5S3O16,mp-677192
4.905,-2.442200969867791,Na63S21Cl3O84F18,mp-680169
0.9515000000000002,-0.7991678507443916,Na16Ti16Se72,mp-680191
2.6624,-1.4947461769862735,Cs5Te3H4N1Cl18,mp-682548
2.5692,-2.4338761206349204,Cd2Fe2Sn2P6O24,mp-684826
3.323,-2.5327419519318184,Ca2As2O7,mp-6929
2.5971,-3.201401302875001,Ca12Zr8Fe8Si4O48,mp-695062
3.1745,-2.717134178782965,Rb1Cd1F3,mp-6951
1.8774,-0.6336847079688894,Ba2H6Ru1,mp-697038
1.5269999999999997,-0.3261628288542856,Mg8Ni4H16,mp-697331
5.5022,-1.9192515413051108,B10H24N2O24,mp-703444
4.6886,-0.7743433693304002,Zn2H24C4N12Cl8,mp-707960
4.5753,-4.281750657480002,La2O2F2,mp-7100
4.544,-2.392879218466,Na12B12H8O28,mp-720583
0.005199999999999427,-0.5366149163690478,Nd2P10,mp-7332
0.02090000000000014,-0.16566213295454446,Hf12Cu32,mp-7353
0.17819999999999991,-0.6823750655312502,K2Cu2Se2,mp-7435
1.8388,-1.080433147929286,Hg6S4F4,mp-7580
5.8809000000000005,-2.51264760412011,K4B24P4H16O56,mp-758840
1.8951,-1.44493927703125,Li3V1S4,mp-760375
2.8402,-2.5681363732435165,Mn6P4O16,mp-763259
2.1886,-3.404339692173912,Ba1Ta6O16,mp-769349
1.35,-2.2580065494523085,Mg4Mn6O16,mp-770423
0.7577000000000003,-2.9479939959523813,Li2Ti2V2O8,mp-772042
4.3777,-2.48139466748884,Cd4P16O44,mp-772228
3.8504,-0.5697244654699993,K20H4C8N16,mp-777297
5.1596,-1.7450601273057675,Cs4Zn2H24S4O28,mp-779814
2.7228000000000003,-2.0236520653814654,Na12Co4C8S2O32,mp-780164
2.2341,-0.9308612520312506,Tl4Si2S6,mp-8190
0.33119999999999994,-0.2446123566964289,Si3Ni1P4,mp-8311
2.6294000000000004,-2.0810847874245115,Rb10Si2H2O10,mp-861513
1.1048,-0.7260624278389998,Sr6Co2C6N6,mp-862670
4.1348,-3.456809079583333,Sc2B2O6,mp-8697
2.4349000000000007,-3.0503082726388886,Ba2La4Pt2O10,mp-8809
4.0149,-2.9772237780155564,Li4In4F16,mp-8892
1.4302,-2.86218398485,K1Nb1O3,mp-935811
0.4238000000000008,-0.8578249492968754,Hf2Tl2Cu2Se6,mp-9397
5.1509,-3.29780615781522,Na2Ca18Mg2P14O56,mp-9467
0.8077000000000001,-0.8709391631666669,Na3Sr3As3,mp-9775
0.7601999999999998,-1.610704065031251,K2Hf2Cu2S6,mp-9855
2.9512,-1.2656815907366068,Li12P4S16,mp-985583
3.6809,-2.7708229241162985,Rb2Tl1In1F6,mp-989532
1.1814,-0.1947080524133792,Cs2Al1Tl1H6,mp-989575
0.9954999999999994,-0.8709152794280002,Sr2W2N6,mp-989625
0.5904000000000003,-1.8464526047916667,Sr2Ag2O4,mp-997086
3.2697000000000003,-1.8502979640249653,Rb2Pb2Cl6,mp-998604
2.1927000000000003,-2.12154676753125,Na1Nd1S2,mp-999470
1.5532,-1.1758353114830764,Ba6Ca4Si4N12,mp-1019520
4.4815000000000005,-1.9379882253448275,Cs2Ca1Br4,mp-1025267
0.0013999999999994015,-1.0611312153566659,Ca8Mo4N12,mp-1029689
3.1453,-0.625025205902,K2C1N2,mp-10408
1.8082000000000005,-1.0173551040024993,Sr4Li2Re2N8,mp-10556
1.8952,-1.7206414512580819,Rb1Nd1Se2,mp-10779
3.2078,-0.3447742761571426,Ba2Ga2H10,mp-1103816
1.5485000000000002,-0.6293375445848219,Dy2Tl2P4Se12,mp-1105239
3.2722,-3.2253892169866667,Pr5As2Cl1O10,mp-1105528
0.44310000000000027,-1.1993621067500002,Er7Co1I12,mp-1105583
0.027900000000000258,-0.23768975312500015,Y12Ni4,mp-1105633
4.1248000000000005,-2.9819183341140003,K3Fe1F6,mp-1111491
0.5011000000000001,-0.023189785066666677,Mg149Al1,mp-1185596
0.14610000000000012,-0.00941108126666658,Mg149Ta1,mp-1185640
0.07800000000000029,-0.6254303284999991,Er4Ge10Ru6,mp-1188138
2.0553,-2.1333413004375013,Dy6Ga2S12,mp-1189242
2.8045,-1.5094744606761368,Na4Se4O14,mp-1190423
4.3374,-2.915537087142858,Ba2Cd1B6O12,mp-1190588
0.1631999999999998,-1.7632092016517866,Tm8P8S8,mp-1192180
0.3698999999999999,-0.8364550543333332,Ba8Li4Cd6As12,mp-1192557
2.095,-2.469716802493369,Cs4V6O16,mp-1192739
1.5956999999999997,-2.5140449769642856,Ba4Gd8S16,mp-1192904
2.1375,-0.9624745415886704,Cs12Al4Te12,mp-1193748
1.9544,-2.284781784573255,Ag8P8O16F16,mp-1194585
1.3072,-0.8785153960962468,Rb16Cu12As16S38,mp-1194809
1.6655999999999995,-0.6633810796800598,Tl10Ag6P8S24,mp-1195546
5.3105,-3.225273789937728,Ba6B12O22F4,mp-1195844
0.22540000000000004,-1.228103774885057,Cs1Er10C4I18,mp-1196026
1.4446,-0.7969067654741233,In2Hg14S12Cl10,mp-1196151
2.0604,-1.1524443360356256,Ga6Sb14S16Cl28,mp-1196451
1.1031,-1.9495311644196431,Ce4Te14Br4O34,mp-1196951
4.9116,-3.3485526906501835,Ca72P48O192,mp-1197377
3.9898,-0.7853599459874996,Al4H60Br12N20,mp-1199829
3.2682,-1.5603312246838466,Ho4N12O36,mp-1200900