band_gap,formation_energy_per_atom,full_formula,task_id
0.0,-0.16146681092307674,Zr14Cu51,mp-1216441
0.0,-0.7725215716666666,Tm2Ga2Au2,mp-1216663
0.0,-0.6376897933333332,Tb1Zn1Si1,mp-1217402
0.0,-0.3907429575000001,Tb2In1Ag1,mp-1217699
0.0,-0.20384100875000044,Ta1Re1,mp-1217894
0.0,-0.32988558625000053,Ta2Co2Ni4,mp-1218015
0.0,-0.4709639055357146,Pr1Sm1B12,mp-1219729
0.0,-0.3649368800000006,Pr2In1Ag1,mp-1219894
0.0,-1.090693702916666,Nd1Al2Pt3,mp-1220172
0.0,-0.24292091625000012,Nb6Ru1Rh1,mp-1220418
0.0,-1.1462335598090274,Nb3Ag2Te1S6,mp-1220648
0.0,-0.0025581754166677704,La3Y3,mp-1222780
0.0,-0.8190513534999994,La1Ge2Ru1Rh1,mp-1222807
0.0,-1.2470664840277779,La10Pb6O2,mp-1223153
0.0,-0.4692970545333338,K1Ba2Fe6As6,mp-1223567
3.4359,-1.4059897329192,K2Mg1H4I4O14,mp-1223767
0.0,-0.5916771483333338,Ho2Ga3Cu1,mp-1224004
0.0,-0.7026942497619053,Ho2As7Rh12,mp-1224190
0.0,-0.5400039824999988,Hf1Sc1Ge4,mp-1224337
0.0,-0.4825370587500002,Hf5Zr5Ga6,mp-1224498
0.0,-0.33577321041666686,Gd2Zn1Ag1,mp-1224733
0.0,-0.2360017504615384,Er14Ag51,mp-1225453
4.265499999999999,-3.563657120937501,Ca2Pr2Al6O14,mp-1227113
2.5685000000000002,-3.3534780325612736,Ba7Ti2Nb4O21,mp-1228174
0.0,-2.5446048437500006,Ba6Nd2Ir2Ru2O18,mp-1228241
2.3912,-2.8377498616203716,Ba9Ca3La4Fe8O30,mp-1228537
0.0,-2.5809278315833333,Ba6Gd2Ir2Ru2O18,mp-1228796
1.4701,-3.094559951589655,Cs2Mn2Cr2F12,mp-1228863
0.0,-1.3983893615476195,La4P4Pt4,mp-12481
1.7300999999999997,-1.166817287284483,Cs2La2Cd2Te6,mp-12491
0.0,-0.5107813299999991,Hf2Ga2Au2,mp-12952
3.4479999999999995,-3.6129637397499996,Ba2Ho1Ta1O6,mp-13000
0.0,-0.3242001824999998,Li2Ga2,mp-1307
0.0,-0.6295851152777784,Tm4B16Rh4,mp-13343
0.0,-0.46378208399999965,Yb1Mn2Si2,mp-13398
0.0,-0.5133484713888888,La2Ag2Pb2,mp-13406
0.0,-0.5220194075000002,Sr2Ni2Ge4,mp-13513
0.0,-0.17230705000000057,Hf2W4,mp-1400
0.0,-1.6028919271666673,K2Ru2O8,mp-14005
1.8969999999999998,-2.402584577073055,Lu12Au24F108,mp-14802
0.0,-0.21115442799999967,Al4Au16,mp-1490
0.0,-0.4433538424999994,Sr8Li4Si12,mp-15551
0.0,-0.5398676216666658,Ce2B4Ru4,mp-15588
2.0967000000000002,-2.615418780736216,Ta4Ag4P16O52,mp-15750
0.0,-0.07651670089285696,Mn12Mo12C4,mp-15812
0.0,-1.1143457075,Nd2Sb2Pt2,mp-15839
0.012199999999999989,-0.41949836134057866,Lu6Co58Si8B20,mp-16093
0.0,-1.0811635050000006,Ho2Si4Pt4,mp-16377
0.0,-0.6349232699999998,Tb2Al4Ni2,mp-16516
2.5834,-2.503711422118057,Hg8B32O56,mp-16585
0.0,-0.34584320999999996,Er1Zn1,mp-1660
1.2212999999999998,-2.3835099328571436,Ba8Co4O16,mp-16887
0.0,-0.3305931124999997,Yb1Zn1,mp-1703
0.0,-0.8512463105555557,Sc6Sn6Pd6,mp-17092
3.2659000000000002,-2.368143540375,Li12Ga4Ge4O20,mp-17685
0.0,-0.28249461351851923,Ba8Si40Au6,mp-17815
2.2302999999999997,-2.7585267073460003,Ba2Mn1W1O6,mp-19085
3.9942,-2.4365317484577917,Sr2Ni6P8O28,mp-19211
1.0848999999999998,-2.824617675346,Nd4Mn2Co2O12,mp-19336
0.0,-2.3815580307500013,La2Ni2O6,mp-19339
0.0,-0.08635245072916693,Cu2Se4,mp-2000
0.0,-1.17960265365625,Ce4Cr4Se12,mp-20170
0.0,-0.31419637291666663,Dy2Co2C2,mp-20350
0.0,-0.33770590222222235,Tm3Ag3Pb3,mp-20522
0.0,-0.07942822249999981,Gd1Mg3,mp-20534
0.0,-0.7117755160000001,Nd4Sc2Si4,mp-20647
0.0,-0.14400046615384537,Mg1Fe6Ge6,mp-20673
0.0,-0.8095254383333336,Er4Ni4Ge4,mp-20676
0.0,-0.0626458875,Cu2Te2,mp-20826
0.0,-0.44542220399999904,Ce1Mn2Ge2,mp-21089
1.4844,-2.5725000914285716,Ca4Pb2O8,mp-21137
0.0,-0.10822306873563256,Rb1In4,mp-21477
0.0,-0.34267281611111144,Tm4In2,mp-21486
0.0,-0.7153782516666669,Ba6Sb12,mp-2196
0.0,-2.3348876332499997,Nd4Ni4O12,mp-22106
0.0,-0.5155895549999995,Nb4Ge4Ir4,mp-22287
0.0,-0.44644997649999996,Sm1Fe2Ge2,mp-22349
0.28259999999999996,-1.8538998664285715,Pr4Br10,mp-23169
0.7255,-1.504335823024966,Rb2Ni2Cl6,mp-23486
3.0080999999999998,-0.657751654913333,Ca4H8,mp-23713
2.7657,-1.7490218880515793,K2Cr2Cd1H4O10,mp-24816
3.4619000000000004,-2.278141617928571,Tl8P8O24,mp-27144
4.0832999999999995,-1.791369431805938,Se4O4F8,mp-27367
0.0,-0.316642925,Be1Co1,mp-2773
1.1719,-0.45523856999999995,Mn1I2,mp-28013
3.3874999999999997,-2.621599770028,Ta4Cl4F32,mp-28185
0.0,-1.0220334533333333,Ca6As6Pt6,mp-28340
1.3764,-0.24906739285714302,Hg12Te8I8,mp-28579
0.0,-0.9234245731249997,Ho6Ge6Ir4,mp-29118
0.0,-1.5372797027500003,Ba3Sn1O1,mp-29243
0.0,-0.9160422858333336,Pr8Si8Pd8,mp-29565
1.8582999999999998,-0.8707301723556252,Ru2S6Cl16,mp-29568
0.6099000000000001,-0.42768321242857127,K4Cd1As2,mp-29585
0.0,-0.701144532,Nd8Sn12,mp-30290
0.027000000000000135,-0.15376551800000016,Al12W3,mp-30336
0.0,-0.1808125399999998,Mg2Al4Cu2,mp-3034
0.0,-0.9196123824999999,Dy4Sn4Pd4,mp-30618
0.0,-0.171946257083333,Mg1Cd1Ag2,mp-30727
3.2853999999999997,-2.3064448074264705,Sm4Te8O22,mp-3073
0.0,-0.3543826912500001,Ho4Zn12,mp-30736
0.0,-0.6240380288888888,Pr2Ag2Sn2,mp-31421
0.5317000000000007,-1.6706745964430145,Dy24Se44,mp-32633
2.6550000000000002,-3.0552487869318186,Tm4Sn4O14,mp-3334
0.26529999999999987,-0.33914850766666643,K2Sn2Sb2,mp-3486
0.0,-0.8975837600000005,Lu1Si2Pd2,mp-3507
0.0,-0.4877130762500004,Si4Ni4,mp-351
0.0,-0.3529218099999998,Mn1Al1Co2,mp-3623
0.0,-0.434274954,Yb1Al2Ge2,mp-4041
0.0,-1.8829111695604384,Cu3P2O8,mp-4093
2.0299000000000005,-3.320707660500001,La2Te1O2,mp-4547
0.0,-0.7848486246875002,Zr4Sn2C2,mp-4613
0.0,-0.40286269066666663,Tb1Si2Ag2,mp-4614
0.0,-0.25445849999999925,Tl1Cr1Te2,mp-4638
3.9273000000000002,-2.4631480967261905,Cd8P16O48,mp-4659
0.0,-0.8360165135000003,Nd1Ge2Pd2,mp-4725
2.4939999999999998,-1.394988435178572,Al4Zn2S8,mp-4842
2.7177000000000002,-2.6474971950000006,Gd6Sb10O24,mp-505046
2.3839,-1.3266642364285721,Pb12Br8O8,mp-505284
0.0,-0.41787884051281965,Ta8B2Te16,mp-505499
0.0,-0.8175973794444439,Er8Ti12Si16,mp-510085
0.0,-0.6440909109999999,Ca1Si2Ni2,mp-5292
1.5819,-1.730082849815714,K12Mn4O12,mp-540914
0.0,-0.539771445,Sr1Hg1,mp-542
1.49,-0.9054774577451639,K8La4P8Se28,mp-542078
1.9291,-1.0366856989550781,Hg6Se6O20,mp-542115
1.0923000000000003,-1.0698173563327926,K4Mn2P4S12,mp-542638
3.0204,-3.7524898648437492,Gd8Si4O20,mp-542831
3.6590000000000003,-2.727533605137364,Sr4Fe8P8O32,mp-542976
1.2800999999999996,-2.3320479909374994,Sm1Bi2Br1O4,mp-550111
2.0439999999999996,-2.5597448683192314,Re2Sb2O2F20,mp-554432
0.3873,-2.781399097799168,Mn6F18,mp-556560
5.5637,-3.827456751278571,K6Zr6F30,mp-556689
0.0,-1.0946880970966666,Cu2Cl2F20,mp-557055
1.1395999999999997,-2.5908907987500007,La4Pd4O10,mp-560340
1.6795000000000002,-1.291027062071429,K6Sm2As4S16,mp-560964
0.0,-0.8617348691964283,Nb6Se8,mp-561
1.1964999999999995,-2.4851438514062494,La12Ga4S20O4,mp-561076
1.9752999999999998,-1.2089884269597775,Rb6Zr4P10S36,mp-561527
0.0,-0.2568449162318836,Ce2Ti4Al40,mp-567387
0.0,-0.953223639166667,Tm4Al4Rh4,mp-568685
0.0,-0.4159647658333328,Ca1Au5,mp-568920
0.0,-0.8101690218750002,Yb10Au6,mp-568944
0.0,-0.3950949145000003,Er4Al36Fe16Si24,mp-569739
0.0,-0.2590201314814814,Ba8Ag6Ge40,mp-570662
2.6350000000000002,-1.2486240062799336,Cs4Ga12S20,mp-573145
0.0,-0.5712132136666668,Ho1Co2B2,mp-573995
0.0,-0.5940248131944443,La8Ni40As24,mp-582126
6.799099999999999,-3.5821628859053796,Cs2Na1Sc1F6,mp-6204
0.0,-0.6193786507142859,Nd12Ge8Ru8,mp-630836
4.0725999999999996,-1.0719800949484348,Ba4Ca8P24N48,mp-6404
0.0,-0.42224924472400005,Ti3Sn1H1,mp-644483
0.0,-0.18647633435897476,Li3Fe18Ge18,mp-652399
0.0,-2.282697706397059,Ba8Yb2Cu6O18,mp-653337
0.0,-0.6544984175000002,Ce2Cu2Sb4,mp-672238
3.4662,-1.595411307540732,K12La8N36O108,mp-680063
2.3675,-1.1507877960937503,Co16Te8Br16O24,mp-687088
5.3068,-2.346332301506754,Sc2P6H12O24,mp-696457
0.1419999999999999,-0.49167728367333297,Nb24H4I44,mp-696500
0.0,-1.5728959573214283,Sm1P1,mp-710
2.1166,-3.44035330521875,Tm2Se1O2,mp-753920
0.0,-1.0316267133333337,Tb1Si2Rh3,mp-754875
1.9048000000000003,-1.8680843617514291,Os6O12F24,mp-757594
1.4867000000000001,-1.4876581524783337,Na20Cu4H8O16,mp-757878
0.0,-2.5355706101329782,Sr12Fe8O27,mp-758049
0.3731,-0.34776571072916757,Fe2Se4,mp-760
1.9881000000000002,-2.154837719000001,Li1V1C2O6,mp-762019
0.0,-1.6187587606617648,Li9Nb14S28,mp-767218
2.2104999999999997,-3.223634077267501,Li4La12Mn4O28,mp-769464
2.7683999999999997,-1.757228532726429,Li4Mn6Se8O24,mp-773051
5.485600000000001,-2.0466276342178125,Nd4H16S8N4O32,mp-774927
0.0,-2.802119957759327,Mn1Nb3P6O24,mp-775218
3.6599000000000004,-2.851318384166666,Y2As2O8,mp-8058
0.0,-0.2334279016666668,Ba2Cd1,mp-8093
0.0,-0.8239297812499995,Si4Rh4,mp-818
0.0,-0.5210696916666665,Sc2Ni4,mp-850
0.0,-0.9839608068571437,Eu1P2Rh2,mp-8582
0.0,-0.3290915784999999,La2Zn8,mp-861620
0.0,-0.3195855337500002,Li1Ge1Au2,mp-861881
0.0,-0.5288958966666666,Ta1Ti1Tc2,mp-861912
0.0,-0.4668139025000002,Li1Al2Ni1,mp-862318
0.0,-0.5054144112499999,Sr2Cd1Pb1,mp-862721
0.0,-0.18859179187499997,Li2Pm1Al1,mp-862929
0.0,-0.44745756624999977,Pm2Cu1Rh1,mp-863670
0.0,-0.73462184,Pm2Ge1Au1,mp-863684
0.0,-0.6948276687499999,Tb1Sn1Au2,mp-864599
0.0,-0.34034539499999994,Zn2Ni1Rh1,mp-864654
0.0,-0.3367958062500002,Nb16Ni8C4,mp-864841
0.0,-0.2681197624999996,Dy2Mg1Al1,mp-865006
0.0,-0.2538679786250002,Na1Cd2Pt1,mp-865076
0.0,-0.3337678999999998,Dy1Mg1Zn2,mp-865142
0.0,-0.8312657724999997,Mg1Al1Pd2,mp-865152
0.0,-0.09575995750000033,Co6Pt2,mp-865193
0.0,-0.3183834449999998,Tm1Mg1Zn2,mp-865233
0.0,-0.26729138500000005,Gd2Mg1Tl1,mp-865316
0.0,-0.5466226987500002,Tm2Os1Au1,mp-865369
0.0,-0.3187948174999997,Y1Mg1Cd2,mp-865512
0.0,-0.27723734416666623,Ti1Mn1Co2,mp-865537
0.0,-0.8325576606122453,Dy2Ni8P4,mp-866032
0.0,-0.2902502477083333,Nd1Mg1Ag2,mp-866074
0.0,-0.7276126206250004,La1Sn1Au2,mp-867118
0.0,-0.41815644750000036,Be2Co1Ni1,mp-867271
0.0,-0.3825643931249998,Sm2Hg6,mp-867879
0.0,-0.7914456937499992,Sc1Ga1Ir2,mp-867916
0.0,-1.1002859812499999,Sc1Al1Rh2,mp-867922
0.0,-0.3168905224999996,Ta1Al3,mp-869
0.0,-0.5612123833333336,Sr2B4Rh5,mp-8896
0.0,-2.4663325569852947,La12Ir12O44,mp-9612
0.0,-0.16102841166666648,Li3Ag1,mp-976408
0.010499999999999954,-0.6251232388888889,Li4Yb8In4Ge8,mp-977355
2.934,-1.8155658861975006,Sr16Li8Ta8N24F8,mp-979340
0.0,-0.4920040377500001,Y3Tl1C1,mp-9960
0.0,-0.7406696275000009,Pr4Si4,mp-9968
0.0,-0.23958657083333357,B1Os1,mp-997617
0.018999999999999684,-2.4199745273553797,Cs4Na4F12,mp-998609
0.0,-0.6060049362499997,Sm2Ga2,mp-999177
0.0,-0.34210951937500056,Lu1Ni1C2,mp-1001603
0.0,-0.9363763322727269,Ce8Si6Rh8,mp-1006390
0.0,-0.1983679666666666,Co1Te2,mp-1009641
0.0,-0.7304604966666671,Hf2V2Si2,mp-1018720
4.7621,-3.398714537857143,Ba1Sr2Mg1Si2O8,mp-1019558
0.0,-1.0518919966666669,Tb2Ga2I2,mp-1025099
0.0,-0.5447509514285714,Si1Sn1Pt5,mp-1025324
0.0,-0.0820134178566659,Zn4Re2N6,mp-1029257
0.0,-0.12894808416666712,Nb4Sn8,mp-1046
0.0,-0.7762409829999996,Dy1Si3Ir1,mp-1070146
0.0,-0.12387486166666643,Tb1Mg1Co4,mp-1070837
0.0,-0.7596952850000006,Eu2Au4,mp-1071698
0.0,-0.49822405833333266,Lu2Sn4,mp-1072259
0.0,-1.10734012,Ce2Si2Pt2,mp-1072580
0.0,-0.4447163149999997,Tm2Al2Zn2,mp-1077423
0.0,-0.46437009458333467,In2Pd6,mp-1078721
0.0,-0.7339849656249999,La2Cu2Sb4,mp-1079103
0.0,-0.6781018778571424,Eu2P6,mp-1079534
0.0,-0.6236298936666671,Nb4Cr2B4,mp-1079560
3.8228000000000004,-1.6706627642413792,Cs2Sr2I6,mp-1080232
0.0,-0.6556937276388896,Sm1B2Ir3,mp-1080381
0.0,-0.7231634124999994,Pr4Al4Au4,mp-1101978
0.0,-1.0954459271428578,Pd4Pb2O8,mp-1103838
0.0,-0.3391190100000005,Tb6Ga2Co6,mp-1104279
0.0,-0.9424202107142869,Dy6Pd8,mp-1104399
0.0,-0.583838774951923,Ta4Ga1Te4Se4,mp-1104454
0.37600000000000033,-0.7008960362500005,Sm6Bi8Au6,mp-1105248
0.3743999999999996,-0.24181610312499968,Li8Mg4Si4,mp-1105932
0.0,-0.1665699452941174,Ba1Sb12Os4,mp-1106056
0.0,-0.9812195004999993,Pr4Si10Pt6,mp-1106159
0.0,-0.2790429000000003,Ga1Co1,mp-1121
0.0,-0.8672311066666669,Dy1Au2,mp-11241
0.0,-0.49790231333333335,Ba2Hg4,mp-11267
7.7513000000000005,-4.4909237821425,Tb4F12,mp-11347
0.0,-0.49629880666666715,Er4Ga4Co4,mp-11433
0.0,-0.4555044716666667,Hf4Ga8,mp-11440
0.0,-0.08082460800000035,Ni4Mo1,mp-11507
1.2648000000000001,-1.4147530388749998,K1Nd1Te2,mp-11740
0.0,-0.3286189904166674,Er2Ag1Os1,mp-1184131
0.0,-0.4049548312500004,Er1Tm1Ru2,mp-1184242
0.0,-0.7556596375,Gd1Mg1Au2,mp-1184513
0.5779999999999998,-0.023608068299999823,Mg149Zn1,mp-1185642
0.0,-0.7680436874999996,Nd4As8Au4,mp-1186304
0.0,-0.4411739075000001,Pm2Cd1Pb1,mp-1186480
0.0,-0.23606814416666655,Ti1Ga1Cu2,mp-1187459
0.0,-0.3700982949999996,Yb1Dy1Cd2,mp-1187613
0.0,-0.29202962888888984,Zr10Cu2Pb6,mp-1188531
0.05600000000000005,-0.11478548250000031,Nd12Os4,mp-1188656
0.0,-1.5797517915473331,Cu4Ag4F12,mp-1188802
0.0,-0.45268989166666607,Pr4Al2Ge12,mp-1190006
0.0,-0.8721573327272726,Ba6Al8Pt8,mp-1190157
0.3883000000000001,-0.706387788131666,Lu6H18,mp-1191245
0.0,-0.3516385054166668,Sm16Ga6Co2,mp-1191458
0.3415999999999997,-1.8785405287351196,La8P8S8,mp-1191492
0.23859999999999992,-1.7736220670684535,Er8P8S8,mp-1191596
0.0,-0.7246458458133335,Nb12Al8N4,mp-1191953
0.0,-0.5804647109090908,Tm6Ga4Ni12,mp-1192294
1.8258,-1.849538975782501,K1Fe3H6S2O14,mp-1192851
0.0,-1.2051382998125004,K12Fe4S12,mp-1193931
0.0,-0.4809873841666666,Ba20La4Si24,mp-1195178
4.346500000000001,-3.191796942197601,K10Y4Si8O26F2,mp-1195556
0.0,-0.5920136517499998,Y8Re12Si20,mp-1195855
0.0,-0.65971780875,Ca2Sn4Rh2,mp-11959
1.7891000000000001,-0.546191889659887,Cs6B6Se20,mp-1196535
0.0,-0.8086747107142855,Lu22Ge20,mp-1196590
5.7163,-0.21364628520476206,Li4Zn8B20H80,mp-1198025
3.9132000000000002,-1.6163897106150003,Tl4Fe2H24S4O28,mp-1198334
0.4863999999999997,-0.444751741385297,Cs4Ag28S16,mp-1198931
0.0,-0.7532229548809524,Lu4Fe20P12,mp-1200053
1.8207000000000002,-1.5341652065463371,Cs12V4S16,mp-1200171
0.0,-0.2746811490566038,Dy12Al86W8,mp-1200455
0.0,-0.6362578636111115,Tb8B24Os4,mp-1200538
0.0,-0.4732101382407418,Sc4B16Ru16,mp-1200617
3.4663,-2.6622361679433335,In2Sb6F36,mp-1200631
0.0,-0.5928931555555548,Sc8Si16W12,mp-1202662
2.409,-1.0762352959752164,Cs16Te8S24,mp-1202720
0.0,-0.7306350311111116,Dy8Nb12Ge16,mp-1204364
0.0,-0.7857971769999998,Tm4Co2Si4,mp-1205659
5.3713999999999995,-3.0258835047588506,Rb2Sn1F6,mp-1206039
0.0,-0.4493758456000002,K1As2Ir2,mp-1206406
0.0,-0.47288149149999936,La1Mg2Si2,mp-1206521
0.0,-0.6680552976666668,Ce4In2Au4,mp-1206585
0.0,-0.5650402183333334,Ca1B1Pd3,mp-1206909
0.0,-2.30546543775,Yb4Rh4O12,mp-1207518
0.0,-0.7007997359999998,Yb8Sn20Pd12,mp-1207673
0.0,-0.24734175613207568,Yb12Ta8Al86,mp-1207719
0.5696000000000003,-0.38708144500000013,Tl4Pt2I12,mp-1208181
0.0,-0.5206180360416668,Tb4Ga8Ag4,mp-1208317
4.0144,-3.784419856333,Sr4Ca4Cr4F28,mp-1208686
0.05840000000000023,-0.4177609733333334,Sm16Cd4Pd4,mp-1208955
1.5238000000000005,-0.10126960890548009,Rb2P30,mp-1209298
0.0,-0.8568715574999999,Nd4Sb4Ir4,mp-1209911
0.0,-0.23764464139705913,Nd46Cd8Ni14,mp-1210583
2.7590999999999997,-2.238347645384616,Li2Fe1W2O8,mp-1210849
0.0,-2.3332431173749995,Li12Yb12Te8O48,mp-1211223
0.0,-0.3386059373076915,Lu6Al60Re12,mp-1211408
4.2693,-3.489214706354167,Li4Pr24B12O56,mp-1211486
0.0,-0.7445689332500003,La8Sb24Pd8,mp-1211524
0.0,-0.5448952057312924,La6Cu24P12,mp-1211723
2.8031,-1.9919900277326317,Mn8Tl8Mo12O48,mp-1211724
4.3032,-2.3558832230999998,K8Mg2Mo6O24,mp-1211857
0.0,-0.5870488063157892,Er6Al24Os8,mp-1212920
0.0,-0.4588370387499996,Dy16Cd4Pd4,mp-1212939
0.0,-2.684595269021538,Eu6W2Cl6O12,mp-1213105
4.341799999999999,-3.844695394125001,Dy12Sc8Al12O48,mp-1213138
0.0,-0.5920075192105266,Dy6Al24Os8,mp-1213200
0.12910000000000021,-1.8928507607648801,Cs2Eu2Ta12Cl36,mp-1213620
2.5635000000000003,-1.9196752453240735,Cr4Ni8B4O20,mp-1213761
0.0,-0.9518313249999998,Ce6Zr2Sb10,mp-1213800
0.0,-0.6770615104433503,Ce3P6Pd20,mp-1214002
0.3306,-2.474457502568069,Cs12Ce4Cl24,mp-1214351
0.0,-0.6341103874999993,Ce12Co4Ge8,mp-1214556
1.9354999999999993,-3.0479861987500003,Y4Cr2Sb2O14,mp-1216201
2.3712999999999997,-1.7877622944047624,Ti1Ni4Ge1O8,mp-1216682
3.2716000000000003,-2.8799398840625012,Sr2La2Ga6O14,mp-1218197
0.0,-2.527563532416666,Sr4Nd2Fe6O18,mp-1218798
1.3201999999999998,-1.868630886820652,Sm6Ge3S14,mp-1219159
0.3067,-0.49222674632799707,Rb12Sn2As6O1,mp-1219774
0.0,-0.5818047483333331,Nb1B2W1,mp-1220349
0.0,-0.2524470725000003,Li2Al1Ga1,mp-1222668
0.0,-0.5176395579166666,La3Ga6Ni9,mp-1223449
0.0,-0.4414543788888889,K5As4,mp-1223503
0.0,-0.7119738286666669,K1Si4Pt4,mp-1223832
0.0,-0.7363380183333325,Hf2Si1As3,mp-1224317
3.8706,-2.4255818608653836,K5Sm1Mo4O16,mp-1224359
1.5819999999999999,-2.0224440160577086,La40Se48N8,mp-1224631
0.0,-0.42102036642857094,Eu1Cd1Au5,mp-1225324
0.9899999999999993,-1.9939778068206522,Dy6Mn1Si2S14,mp-1225409
1.4264000000000001,-2.765817787038544,Cs2Fe2Co2F12,mp-1226043
0.0,-2.5196669547499986,Ce4Cu3S4O4,mp-1226848
0.0,-0.40558469166666633,Ce1Y1Mg2Ni8,mp-1226870
0.0,-0.24647764250000037,La20Ga6Co14,mp-1226984
0.5087999999999999,-0.20877073083333406,Bi4Te4Ir4,mp-1227372
0.0,-2.8917851435000004,Ca4Mg2Re2O12,mp-1227487
0.0,-2.323727583750001,Ba1Eu1Fe1Cu1O5,mp-1228144
0.0,-0.24188020328947357,Ba7Cd31,mp-1228287
0.0,-2.1920697329807703,Ba2Nd1Tl1Cu2O7,mp-1228402
3.6376999999999997,-2.7231630850131583,Ba4Na2W2O11,mp-1228581
0.0,-0.4922928480000003,Ba1Ge2Au2,mp-1228646
0.0,-0.06228785333333331,Ag1Pd1,mp-1229012
0.0,-0.5295391751587294,Ce5Cu19P12,mp-1229080
0.0,-0.8862874201727261,Ca6Mn6N10,mp-1245445
0.0,-0.27885607733333373,Ti1Au4,mp-12635
0.0,-0.7700996804999996,La1Ge3Rh1,mp-13123
6.4632000000000005,-3.6110247996139995,K6Y2F12,mp-13230
0.0,-0.3399418833333332,Y1Cd2,mp-1331
0.0,-0.4740911816666653,Hf2Ge4,mp-13683
0.0,-0.39254073125,Al4Au4,mp-1399
0.0,-0.4597644600000006,Ge4Pd4,mp-1424
3.4741999999999997,-3.2999358863802084,Ba18Sc6B18O54,mp-14972
0.0,-2.1045557600000007,Er2Cu4O8,mp-15186
6.5301,-3.608501567732965,Rb2Na1Ho1F6,mp-15318
0.0,-0.25153399500000084,Nb6Rh2,mp-1545
0.0,-0.7885235365,Sm1Co2Si2,mp-15968
1.0705,-3.215657717500001,Gd2Te1O2,mp-16035
0.0,-0.3618361562499999,Li1Ni2Ge1,mp-16349
0.0,-0.7178018612499999,Yb2Sn4Pd2,mp-16641
3.1347,-2.0732862540270935,Rb8Cr4O16,mp-17071
3.557,-3.672518684583333,Pr4Ta4O16,mp-17722
1.4504999999999995,-1.3405990453602434,Nd6Si2Ag2Se14,mp-17827
3.1871,-2.750204653801466,Mn8Be6Si6Se2O24,mp-18554
0.0,-0.9969628057142851,Hf8Co16P12,mp-18581
0.0,-3.3095078896679704,Nd6Ti6Se4O16,mp-18647
2.1729,-2.957572990681818,Sr6Ho2Rh2O12,mp-18652
1.2344,-3.166714215750001,Sr4Er2Mo2O12,mp-18744
1.5859999999999999,-2.437524214763076,Ba3Mn2O8,mp-19188
0.37619999999999987,-1.0478716222499997,Co1Pt3O6,mp-19238
0.0,-1.0943786491426664,Tm3In1N1,mp-19847
1.2998000000000003,-1.6179674920000002,Na8Pb2O8,mp-20088
0.0,-0.2738881625000005,Dy1Pb3,mp-20176
0.0,-0.39684698722222106,Mn4B2,mp-20318
3.9879999999999995,-2.519790825858572,Ho2C1N2O2,mp-20374
0.0,-0.3447164480000005,Eu1Al2Si2,mp-20595
0.0,-0.46051115944444493,Li8B4Pd12,mp-20657
0.0,-0.7302142536666665,Pr4In2Ge4,mp-20715
1.0030999999999999,-0.7779061980952383,Ba2In4Te8,mp-21183
0.0,-0.551921978,Eu1Ge2Ru2,mp-21417
0.0,-0.414554225000001,Hf8Sb16,mp-2180
1.2850000000000001,-1.8686086651988632,Ce8Se16O64,mp-21838
0.0,-0.28539008000000027,Lu2Co4,mp-2206
0.017699999999999605,-0.26903128958333333,In2Cu2Te4,mp-22261
0.0,-2.0792490028571424,Y2Cu4O8,mp-22618
0.0,-0.21196212785714255,Cr4Cu2Te8,mp-22625
0.0,-0.9992283516666668,Yb3Sn3Pt3,mp-22779
3.1117,-2.6330536064930556,Co8B32O56,mp-22829
3.6459999999999995,-2.8547138093199997,La2Cl6,mp-22896
4.0499,-1.53833741384,Zn2Cl4,mp-22909
4.633800000000001,-3.020893952446088,Na4Be1Al1Si4Cl1O12,mp-23151
1.8227000000000002,-0.7660617666177774,Pt6Cl12,mp-23290
0.0,-0.5118830458333333,Sm2Al4,mp-2358
5.072699999999999,-1.2250102890188335,H32S4N8O16,mp-24468
0.06780000000000008,-0.46794891999999955,Lu1Hg1,mp-2522
0.8672000000000002,-2.5302551957142874,Mo8P14O48,mp-26744
0.02149999999999963,-0.14532253500000003,Mn2Ir2,mp-2728
3.4393000000000002,-1.5048139304750001,Tl4Pb8Cl20,mp-27283
3.0446,-1.517841403088889,As3H5O10,mp-27404
0.4112,-0.29866796625000047,Tl1Bi1Te2,mp-27438
4.9361999999999995,-2.727978783695,Y2Cl6,mp-27455
5.279299999999999,-1.3975143215577779,Ba2Cl4O12,mp-28512
0.0,-0.35680870633333345,K4Cu10Te10,mp-28737
0.0,-1.246268484722223,La10Sb6Br2,mp-29684
0.0,-0.040346390833333245,In1Ag3,mp-30343
0.0,-0.3575308637500001,Cu1Sn1Rh2,mp-30595
0.0,-0.42187456750000063,Li1Pd2Pb1,mp-30763