band_gap,formation_energy_per_atom,full_formula,task_id
4.3499,-2.5062916871839587,Er4Se4Cl4O12,mp-23086
3.9653,-2.0606297619463163,Be6As4H8O20,mp-24570
4.1507000000000005,-1.6387919184765225,K4Ni2H16C4O20,mp-24573
3.6447,-3.324886586875,Ca1O1,mp-2605
2.7665,-2.5117697579341383,Rb4Tl4F16,mp-27210
5.045,-2.8124071794821592,Nb4Se4F36,mp-27313
3.3537,-1.932989199278,As2Cl2F16,mp-27926
7.2102,-1.6907896199609995,H44N4F32,mp-28125
3.0582000000000003,-2.4159576444444446,K20V12O40,mp-28280
0.7333999999999998,-0.7217713062413793,Cs2Au2I6,mp-28453
2.7777,-1.3540220490340908,Al14Tl6S24,mp-28759
1.4259999999999993,-0.9052128036574076,Ti1Cu4S4,mp-29091
2.0518,-1.7010120057791132,Cs4Pt2Cl8,mp-29216
1.6611,-0.7215347693758335,S4I4Cl28,mp-29264
1.6915999999999998,-2.187199017420635,P4Pd2O12,mp-29274
0.3080999999999996,-0.541791953750001,Si8Te8Pt8,mp-29397
1.8522,-0.307814917222222,Ga2Te2I14,mp-29541
0.5057,-0.05259383409090968,Ag6Sn2P14,mp-29849
1.8387,-1.0137022969177787,Co4N8O24,mp-30006
6.6663,-3.3177957711356654,Rb8Be4F16,mp-3009
1.2231999999999998,-1.4843819227553052,Rb6Fe2O5,mp-33816
5.0264,-2.2228772871314657,Rb6S6O18,mp-3404
3.3008,-1.6254677211538462,Zn4Te6O16,mp-3502
0.6709,-1.4410939021428573,Zn4Pt2O8,mp-35647
4.9991,-3.523392233759583,Ba8Bi6F34,mp-38357
2.6066,-0.8341424487019985,Ge4N4O2,mp-4187
2.9209,-2.70041890925,Ca2Sn2O6,mp-4190
3.4438000000000004,-3.7391963341666674,La4Ta4O16,mp-4421
4.9687,-2.9591323224600004,Tl2Si1F6,mp-5033
3.2321,-2.6699174527500005,K2Gd2W4O16,mp-505647
1.0821,-2.6701037985212497,Ho4Mn8O20,mp-510225
4.0598,-1.7877572939028572,Mn1P4H16N2O16,mp-510246
0.2684000000000002,-0.09800501232142887,Cd2Sn2P4,mp-5213
1.7948999999999995,-2.0825921379924264,In2Ge2O7,mp-5280
3.1069999999999998,-2.937875535444443,Sr6Ca12V14Bi2O56,mp-532540
2.7734,-2.3724063981250003,Ba2Sn2Ge6O18,mp-540635
2.631,-3.348815544497127,Rb2Ti6O13,mp-540784
6.6647,-3.5182269661162997,Rb6Mg6F18,mp-541813
0.017000000000000348,-0.4570292366666671,Sb4Pd8,mp-542106
3.1127,-2.33165122875,Ba4I4O2,mp-551835
1.3266999999999998,-2.2920637418750003,Tb1Bi2I1O4,mp-552857
2.2393,-1.7937085180172414,Cs2As6O16,mp-554229
3.9640999999999993,-3.240207403445,Sr10B6Cl2O18,mp-555203
0.2762000000000002,-2.5043193081041677,K4Sm4Ir2O14,mp-555268
0.09430000000000004,-1.803257972101852,Na9Os3O15,mp-555476
3.1814,-2.853576985819444,K6Y2B4O12,mp-555495
3.6248,-2.7092240295357146,Na6Er2V4O16,mp-555537
4.1926000000000005,-2.445776647183959,Nd8Se8Cl8O24,mp-555650
5.4909,-2.9432735996620147,Rb4Tb4P16O48,mp-555727
5.1698,-2.9748517677408715,Rb4Be16B12O36,mp-556393
1.9307,-1.5602068592000002,K8Pb4O8,mp-556517
0.5758000000000001,-0.92577305948125,K6Cu4Bi10S20,mp-556522
2.0452000000000004,-0.7402209518660726,Tl2Bi2P4S12,mp-556592
3.0092,-2.2323780028722586,Rb2Al2As4O14,mp-556630
4.864,-2.928894396145833,Li8Al4B4O16,mp-556655
1.1862999999999997,-1.52821600203869,Ag4Hg8P4O16,mp-556798
3.6651,-2.984836091,Li12Nd12W8O48,mp-557717
2.0311,-0.8186644411136367,K4Cd2Au8S8,mp-557832
0.7385999999999999,-1.075330017395833,Ag4Hg8As4O16,mp-558188
4.0544,-3.203443828625,Na4Er4O8,mp-5586
4.004,-3.1635565080208345,Ba4Zn2Si4O14,mp-558629
0.0015000000000000568,-0.9860462514285716,Ag12Te6O24,mp-558768
2.1836,-2.7495639249183346,Sr4V4Cl4O12,mp-558871
4.3409,-2.7915752388481825,Na4Ga2Ni2F14,mp-558993
2.8248,-2.7430342851085703,Sm2Mo2Cl2O8,mp-558997
4.1237,-2.612816409986762,Cs4Ge2P8O26,mp-560216
0.17870000000000008,-2.19287853025,Ba4Cu2Te2O12,mp-560502
5.6245,-2.7215757884242606,Cs8Li8P16O48,mp-560667
2.1975,-1.7542593181071433,K4Na2Fe2O6,mp-560924
3.1269,-3.1710660686746035,Mg2Ti4P4O20,mp-561065
3.8486,-2.6214448592600577,Cs6B6O12,mp-561725
4.1491,-2.676869560708899,Cs8Ga4P12O40,mp-562504
0.22750000000000006,-1.0716766347321436,La18Sb32Br6,mp-567777
1.3747000000000005,-0.6798519588511905,K8In8Sn8Se32,mp-568379
1.3964999999999996,-0.2448889498437508,Li2B12C2,mp-569450
2.4632,-1.258231825134805,Sn2P2Cl18,mp-569653
2.6979,-1.7250132667368077,Cs2Cr4Cd1H4O16,mp-572375
3.1141,-2.391176560790902,Rb12Li2Nd22Se24Cl32O72,mp-607785
2.6642,-2.0303457453901994,Cs8Co8Mo12O48,mp-622214
3.6782,-1.614645065123333,K2H2O2,mp-626785
1.3080999999999996,-2.263593048125,Gd1Bi2I1O4,mp-628631
3.1828000000000003,-1.2661074108431576,Na8Co4N16O48,mp-645487
3.0650000000000004,-3.4062951296726185,Ba2Ti2Si6O18,mp-6661
0.9527,-0.3250562063690471,Re24Te28Se32,mp-667286
1.0936000000000003,-0.7413458810794605,Cs16Zr12Te64,mp-667336
2.3358,-0.882803682531348,Rb4Mo12Br28,mp-676313
0.07069999999999954,-0.5574226739733338,Zr2Ti4H8,mp-690799
2.4234,-2.85945960721675,Rb8Zr4Fe4P12O48,mp-694868
5.1147,-2.8132201904413243,K12Zr4H8S4O20F20,mp-696078
3.9656,-2.3990214945794714,Cs2Zn4P4H2O16,mp-699213
0.3637999999999999,-3.13333862075,Yb4V4O12,mp-703673
1.7472,-2.612934525455357,Na32V8P16O72,mp-705037
4.4885,-2.5772395390456304,Na6Al2P4H4O18,mp-707530
1.9278,-1.7275135819444445,Cd1As2O6,mp-7128
2.1995,-0.6958109919872719,K4Ca4H24N12,mp-720856
1.98,-0.5304796052986664,K4Zn2H16N8,mp-722979
4.4207,-2.6541213813032773,Na32Al8P16H8O72,mp-741045
1.0307,-0.4131362325714285,K8P8,mp-7441
1.0177,-2.603764787595999,Ca12Mn8Ge12O48,mp-744259
3.8219,-1.5841573673151719,Cs4Fe4H16Cl12O8,mp-744268
1.8435,-2.359351154541668,Na2V6O16,mp-752972
1.7454,-2.9954813427604168,Ti4Co2O10,mp-753066
4.9041,-2.7653738300175004,K1As1F6,mp-7569
1.2729,-2.9144201518055555,La10Bi8O27,mp-758316
3.5754,-2.5244301710825896,Fe4P16O44,mp-759361
0.02059999999999995,-1.7110155721428566,Mg5Co19O32,mp-767791
7.2359,-4.451874308138182,Ba1Tm2F8,mp-7693
0.8379,-2.158929825511905,Na4Co2P2C2O14,mp-770988
3.8112,-2.1096881797518385,Ho4Se6O24,mp-771136
2.1462,-1.9889594565833333,Na4Fe2As2C2O14,mp-772415
4.3744,-2.776783850678572,K4Sc2P2C2O14,mp-772763
1.2879,-2.4360492202272725,Ba8Pd2O12,mp-782050
3.8889,-3.02779103075,K1La1O2,mp-7958
2.1611,-1.9264607141666668,Li8Pt1O6,mp-8610
1.4051000000000005,-1.7629938231785718,K4Sn4O6,mp-8624
0.3433999999999999,-1.1062351789519993,Yb6N4,mp-864675
4.0934,-2.803469232741429,K1Sr1C1O3F1,mp-865427
3.0668,-1.818433835,Lu2Br6,mp-866214
0.13680000000000006,-0.6628073737500002,Ca2Sn1Hg1,mp-866229
0.3242000000000003,-0.44642097500000055,Ta1Al1Fe2,mp-867249
0.9912,-0.9408602466374992,K4Mn2Se4,mp-8716
1.2768000000000002,-0.4683049333399012,Cs4Si2P4,mp-8932
2.8242000000000003,-1.3310719588690478,Sr4B8S16,mp-8947
2.1558,-2.4613569695962565,Cs2Hg1F4,mp-8963
4.3497,-2.596891342300001,K2Dy2C4O12,mp-9807
2.3136,-2.21706949403125,K1Tb1S2,mp-999129
0.7803,-3.012008749583,Ba4Mg2Co4Cu2F28,mvc-2321
1.9927,-1.05211350994,Zr1Zn1N2,mp-1014244
4.5585,-3.3182663048958347,Ba4Mg8Si8O28,mp-1019549
2.7883000000000004,-1.1916755619519996,Li4Ca4Al4N8,mp-1020031
5.4471,-2.799910119546628,Na4Li2B10P4O28,mp-1020146
0.0032000000000005357,-0.7574608509523811,Nb3B4,mp-10255
2.2735000000000003,-1.1147948437409512,Ba12Nb24N48,mp-1029502
0.059800000000000075,-0.9981452118149994,Ba4Cr4N8,mp-1029770
0.25619999999999976,-0.3878294633908042,Rb2Ag6Te4,mp-10481
5.3437,-2.69146069719738,Cs1Yb1Cl3,mp-1070599
0.1025999999999998,-0.4712648733333336,Be5Pt1,mp-1072399
0.11189999999999987,-0.2968257465794335,Cs1Zn4P3,mp-1101093
1.2212,-2.769821793976,Sr2Ta2N2O4,mp-1101327
3.3976999999999995,-2.8789267957112066,Rb1Pr1O2,mp-1101401
0.31259999999999977,-1.0677055491666667,La4As8,mp-1102055
0.8985999999999996,-1.2341849934821434,Eu2Al4Se8,mp-1103552
2.3675,-2.1456088825333337,Na2In2Ge4O12,mp-1105143
2.2775000000000003,-3.1303294857499986,Pr4Cr4O12,mp-1105822
2.5104,-1.842187441530713,Cs2Tl1In1Cl6,mp-1112490
0.2960999999999998,-1.81847106769138,Cs2Na1Ce1Br6,mp-1112660
3.6548,-2.1877348136140458,Cs2Nd1Ag1Cl6,mp-1112945
0.2659,-1.1613583632413795,Cs2In1Ag1Br6,mp-1113554
0.002200000000000202,-0.8804011737499999,Nd3Sb4Pt7,mp-11184
0.24659999999999996,-0.6772010191666663,Ba4Ca4Sn4,mp-11265
1.6287,-1.1384014178392865,K2Sm2Ge2Se8,mp-11634
2.1157,-2.886860964765625,Ba1Nb2V2O11,mp-1188841
1.7821,-0.99496823853125,Na8Te4S12,mp-1190141
0.1431,-2.427669475544644,K4Cu2P4O14,mp-1190935
0.19140000000000024,-3.2016737923863654,Tb6Ru2O14,mp-1191047
0.04720000000000013,-0.6076288701515153,Ho6B14W2,mp-1191254
0.9789999999999996,-1.0246692108620692,Sr14Sn3As12,mp-1192393
1.439,-1.04536718266,Li4Ca12As8H4,mp-1192528
4.0839,-2.4503093329785366,Cs4P4Pb4O16,mp-1192530
2.2622,-1.5684228094625268,Rb4Ba4P4S16,mp-1192550
4.2078,-1.9113065381157632,Cs6Er4Br18,mp-1193312
4.6361,-2.271579680344828,Cs8Mo4O16,mp-1194312
3.0016,-1.5616443940174385,Rb16Al8S20,mp-1194520
1.7609000000000004,-0.5075900638235299,Ba6P28,mp-1195
4.166,-1.6092357892220381,Rb2La4C12N12Cl2O12,mp-1195186
3.5111,-2.592541065296734,Cs2Na4Mn6P8Cl2O28,mp-1195634
2.9309,-2.5617392491232347,Ba8Mn2Ga4S12F8,mp-1197784
3.7785,-2.214325263649123,K4Li2In2Mo6O24,mp-1197982
2.2733,-2.5250329294150244,Cs4Mo8P12O52,mp-1199248
3.3139,-2.47972746629902,B20Pb8I4O36,mp-1200548
2.1495,-1.917973904243056,Nd32In8Sb8S72,mp-1201452
3.8155,-2.6291874756491227,K12Cd4B20O40,mp-1204785
4.66,-2.9433984277437504,K8Sb4F20,mp-1205394
0.7518,-2.6171214063140003,K2Li1Cu1F6,mp-1207213
5.4891,-3.0134407555906595,Sm2P6O18,mp-1208698
3.2591,-2.6692235176923087,Tb4Hf4Mo14O56,mp-1208737
3.1738,-2.5971146316954026,Rb2Tb2Mo4O16,mp-1209099
5.1982,-2.725038167080604,Rb4Sr8Cl20,mp-1209161
3.6197,-2.5933659087787357,Rb1Sc1Mo2O8,mp-1209180
1.8196,-0.7296352215331664,Rb4Ag4Te4S12,mp-1209320
4.7668,-2.5097589004233334,Na2Dy2Cl8,mp-1210040
4.3889999999999985,-3.4141594381428573,Na4Lu4Si4O16,mp-1210117
0.35110000000000063,-2.6443659267499995,Na2Nb14V4O28,mp-1210152
1.8657,-2.6307766255952383,Mg4Fe4B4O16,mp-1210634
7.129899999999999,-4.3350395049928565,K2Lu6F20,mp-1211423
3.3406,-2.6101162179583333,K2La2Mo4O16,mp-1211443
7.0919,-4.323765142492857,K2Ho6F20,mp-1211478
2.7896,-2.758803376000001,Li12Gd12Te8O48,mp-1212457
0.4422000000000006,-1.1493221000000002,Er4Te4As4,mp-1212634
2.3945,-1.350424438565652,Fe8H40Cl24O20,mp-1212917
5.1119,-3.6075267001041667,Dy4Be4Si2O14,mp-1213057
0.5093000000000001,-1.3393959886646918,Cs2Tb2Mn2Se6,mp-1213063
3.7015,-2.6054502748922403,Cs2Nd2Mo4O16,mp-1213270
4.3343,-3.2858661439340997,Cs8Na8Nb8O8F40,mp-1213599
0.13729999999999976,-3.0939611929901965,Ce4Mg4B20O40,mp-1213931
0.8403000000000003,-3.936154955758025,Ca6Hf6Ag2F40,mp-1214066
2.7374,-2.8469493765625,Ba4Fe8Si8O28,mp-1214455
2.5616000000000003,-3.5232404929891312,Ba10Tm4Zr2Al4O26,mp-1214492
2.2029,-3.122213356677632,Ba5Tm8Ni4O21,mp-1214595
2.2109,-3.617936001583,Ba4Ca2V4Fe2F28,mp-1214736
0.008099999999999774,-0.13528290624182734,Cs6Na52In96,mp-1214812
0.32220000000000004,-0.8514467224999998,Ba84Cd16Bi72,mp-1215155
3.64,-1.8890588322374489,Zn8Ga4P12H32N8O48,mp-1216399
1.0593999999999997,-1.0555631559252878,Rb8Mn2As4S16,mp-1219636
1.8767000000000005,-0.9460221320684532,P4Ir4S4,mp-1220004
1.9128,-2.403561464398631,Rb4Mn2P4H6O16F4,mp-1220230
2.6504000000000003,-1.337717881391528,Na1Ni2H3Se2O10,mp-1221027
0.9622,-0.4631713033333338,Na20Nb2Ga2As12,mp-1221463
0.0940000000000003,-2.443107133708334,La8As4S12O6,mp-1223194
1.4144999999999994,-1.1029235828643718,K1Nb4Ag1P2S20,mp-1223407
1.7009999999999996,-2.123343819722222,Cr2Ge2Sb2O12,mp-1226344
4.4833,-3.748860970654762,Ca2La8Si6O26,mp-1227220
2.4138,-3.4443237280555548,Ba4Mg1Ta10O30,mp-1228584
4.7837,-2.739600286723729,Ba6Ga4B20H8O46,mp-1229265
0.4291,-0.4766841761379311,Rb4As4Pt2,mp-13445
0.6243999999999996,0.0,Si2,mp-149
1.0676,-0.35047618775,K4Cu2As2,mp-15684
0.5868,-0.847010414480319,Cs10Ti12Ag2Se54,mp-16000
3.0005000000000006,-2.4014054725218026,Mn16Ag16P48O144,mp-16552
2.5156,-1.536846676071429,Tl8Cr4O16,mp-16892
3.073,-3.026570758333333,Y8Te4O24,mp-17066
6.7982999999999985,-3.7988596836812496,K8Er4F20,mp-17371
5.7832,-2.9629900038942307,Ba2Li2B18O30,mp-17672
2.3078000000000003,-2.550454423383438,Ba8Sn4S12F8,mp-17918
2.7558,-1.6070584856562506,K12Ta4S16,mp-18148
3.4819,-2.4123758334859517,Cs4Na12Ti4O16,mp-18182
0.8080000000000003,-1.9821740354166668,Ba8Tl8O20,mp-18327
0.7678999999999998,-0.3901414956178157,Rb14Nb2As8,mp-18440
1.2355,-1.0467125783977271,K12Mn2Se8,mp-18481
2.4778,-1.5116064100000008,Co4Te6O16,mp-18855
4.8845,-2.7363218933333338,Ba2W2O8,mp-19048
4.2084,-2.0563719202604163,Fe4S4O16,mp-19254
0.2352000000000003,-2.8046184225000004,Lu2Cr2O8,mp-19360
1.9264,-1.9234782336111125,Sb2Pb1O6,mp-20727
0.012800000000000368,-0.4510345500000016,Zr4Fe6Ge2,mp-21040
0.013200000000000323,-2.8592335820652184,Eu2Nb16O28,mp-21593
0.007899999999999352,-0.8337098475000002,Y24Te8Rh4,mp-21621
3.5284000000000004,-2.5225736808418366,Li8P8Pb8O32,mp-22694
0.01629999999999976,-0.43357834013020813,In2Cu2Se4,mp-22811
4.1625,-2.738930139378485,Na8In4Ni4F28,mp-22820
2.5272,-0.4830178212500002,Bi2I6,mp-22849
3.7769999999999997,-1.4908304651724138,Rb1I1,mp-22903
3.532,-3.89837342025,La16O24,mp-2292
1.2218,-1.5035128241266662,Zr2I2N2,mp-23052
1.2004,-1.5363918528400002,K2Pd1Cl6,mp-23067
2.5146,-1.929207810714287,La6Si4S16I2,mp-23090
3.4431000000000003,-1.79935558375,Ba8I16,mp-23260
3.6886,-1.5438862328526646,Rb8Yb2I12,mp-23347
1.4904,-1.7322962491081992,Cs2Pb1Cl6,mp-23425
2.5289,-1.1889638097844824,Cs4I4O16,mp-23489
1.4216000000000002,-2.0004593018214285,K1Li6Bi1O6,mp-23582
4.1775,-2.0149524637313885,K4Bi4S4Cl8O16,mp-23645
1.4508,-1.3871384021400002,Hg4H4O4F4,mp-23844
3.8464,-1.74325010896,Ca2H2Cl2,mp-23859
2.8823,-0.2937790560719996,K6Al2H12,mp-24034
0.2911999999999999,-0.4610659208333328,Ca8Si4,mp-2517
2.1778000000000004,-2.6309239366666075,Li2Fe2P2O8F2,mp-25407
4.055999999999999,-3.9904432132500007,Y16O24,mp-2652
2.3963000000000005,-1.5358640730681814,Sb8Br4O10,mp-27700
1.9068,-0.5706846137885714,Hg6Te4Cl4,mp-27852
0.8270999999999997,-1.3824823833125002,Bi4S2O4,mp-27891
3.495,-1.71937028475,Sb4As4O12,mp-28109
3.0624,-1.3926330944913794,Cs2I2O6,mp-28295
1.4841,-1.993432377775976,Hg4P4O14,mp-28455
2.4484,-0.7841055842222221,Na4In4I16,mp-28570
0.7104000000000004,-1.2940141338888889,Y8Os2Br8,mp-28744
2.8776,-2.2520774013541662,Dy2S2Br2,mp-28928
0.3411000000000004,-2.28031409175,Sr4Bi4O12,mp-29164
0.4455,-2.8980563200000007,La4Nb28O48,mp-29183
0.8990999999999998,-0.4685965494841279,La8Si16P48,mp-29186
4.3265,-2.849658409876667,Na4Sb4F16,mp-29269
2.401,-1.06012178912,Cu8W24Cl56,mp-29557
2.4559,-1.1755748453057142,Ca12Al4N12,mp-29596
1.5822000000000005,-2.600778895227273,Sr8Pd2O12,mp-29775
2.4206,-0.927783286859606,Rb12Bi8I36,mp-29895
3.2427,-2.778994525993589,Ba24Ga12O42,mp-30198
3.8448,-1.9097530276249997,K4As4O8,mp-30298
0.5752999999999999,-0.8283612766666663,Sr4Li4Bi4,mp-30456
0.008299999999999308,-0.5202651272222217,Eu4Sn10Au4,mp-31293
3.5983,-0.20597743727624973,Nd2C12N18,mp-31320
5.5931,-2.894879028239088,Si5P6O25,mp-3273
2.4486000000000003,-2.7427902400000006,Ba2Sn1O4,mp-3359
4.2046,-3.3628887179924236,Sr72Al48O144,mp-3393
6.3477999999999986,-4.33770598011375,Ba8Nd6F34,mp-35986
3.0486,-3.65877678325,Ba1Zr1O3,mp-3834
3.5372000000000003,-1.1266286823804752,Mg4P2N6,mp-3933
2.5155000000000003,-2.7980312261742433,Nd4Ti4Cd4Sb4O28,mp-39419
3.2492,-3.675265386071428,Ba4Y8O16,mp-3952
4.0941,-2.312981186111112,Li8Ge2O8,mp-4558
3.2947,-1.7296389080312509,Te4S2O14,mp-4906
0.01970000000000005,-0.18272377275,K4Cd2Pb2,mp-504498
0.042599999999999305,-0.36831457159090897,Eu4Al32Fe8,mp-504740
0.5825,-1.7470797822676845,Cs8Mn4O16,mp-505300
1.2465000000000002,-0.17687623619791695,As4Se4I4,mp-505373
3.6714,-1.6942775310146667,K2Sn1H6O6,mp-510002
3.5276,-3.598724924166666,Er2Nb2O8,mp-5370
1.2714000000000003,-1.7792196118622443,Ca4P2O1,mp-5380
2.6097,-2.1850881214109203,Cs4Sn2Ge6O18,mp-540707
2.4540999999999995,-2.0357260738541663,Sm2S2I2,mp-541073
3.9983,-2.383538877176724,Cs4Li2V2O8,mp-541190
4.4501,-1.8393641226233999,K8Fe4H32S8O48,mp-542146
5.0319,-1.8484311576283492,Cs4Mg2H24S4O28,mp-542417
0.5314999999999999,-1.7205967529556645,Rb8Ru4O16,mp-542697
2.4434,-1.4473775038061223,K12Nd4P8S32,mp-542974
0.5156999999999998,-0.8257848395833332,Tl4O2,mp-551470
2.9251,-2.8675755840517247,Cs2Nd2O4,mp-553308
0.8729000000000005,-3.0431425847260773,Eu8B20Cl4O36,mp-553918
3.0569,-3.38141309178431,K16Ti8P4O16F36,mp-554016
5.7573,-4.171632208077857,Pr2Zr4F22,mp-554610
3.1501,-3.0953183826546162,La12As8Cl4O28,mp-555073
3.0729,-2.4574513451848663,Rb12Ti6Ge18O54,mp-555252
2.2856,-1.4908708453694588,Rb6Pr6P8S32,mp-555448
1.0340000000000005,-0.9436067495312508,Li2As2S4,mp-555874
3.1692,-2.6462645284425,Nd12S8Cl20,mp-556023
4.3245,-2.9958030545666663,Na6Be2Al2Si4O16,mp-556258
0.556,-1.3772097420723683,Cu2Bi4Se8O24,mp-556303
2.1324,-1.9232229424673333,La2Pb12Cl2O14,mp-556523
2.8421000000000003,-2.113597926666666,Bi4B4Pb4O16,mp-556601
0.19730000000000006,-1.8610280111636908,K8Cu12S12O52,mp-556787
2.501,-1.8644243002412288,Ge9Pb15O33,mp-557340
2.992,-1.7556735954166676,Tl4In4As8O28,mp-557583
1.8735,-2.4762702318337912,Li12Mo12P12O68,mp-557652
4.4533,-2.0695582504678125,La2H8S4N2O16,mp-558126
3.4458,-1.5720291219195652,K8Er4N20O60,mp-558276
5.2539,-2.381636291231481,Na12Mg2S8O32,mp-558427
5.0484,-2.8172319764923373,K4P4O10F4,mp-558480
2.2881000000000005,-1.6455907544411772,K8Bi48I8O72,mp-558501
2.5862,-3.5122091279891303,Ba10Er4Zr2Al4O26,mp-558566
2.5213,-1.2312725664619262,Rb4Ga12S20,mp-558706
2.8099000000000003,-1.99857202109375,V8Cd8Bi8O40,mp-558859
0.7505999999999999,-2.2828747776136367,Eu8Br12O2,mp-559031
1.2934,-1.0405604700589293,Na12Cr8P12S48,mp-559281
3.0831,-2.338008010104406,Rb16Na16Si8O32,mp-559711
1.568,-1.4457000062133625,Rb14Na2Zn4O12,mp-559795
4.8034,-2.1300570191266672,Ni2F4,mp-559798
2.7581,-1.8760689373388888,K8Mo4Cl20O4,mp-559914
3.2757999999999994,-1.5464760306411118,La4C4N8O2,mp-560490
3.426,-2.874658416288265,Ba4Te2P4O18,mp-560742
6.2181,-2.8884878497690685,Li8Be6P6Cl2O24,mp-560894
2.5052000000000003,-2.587233030514,K1Tl2Mo1F6,mp-560959
0.26119999999999965,-1.3416681418055552,La6C2I10,mp-568591
1.9651999999999996,-1.5704775205247057,La20Si12N36,mp-569576
2.5976,-1.3123813716300003,Tl1Cl1,mp-569639
0.1352000000000002,-1.197559180795455,La28Sb44Br16,mp-570305
2.9781,-0.42285709863071386,P8Br16N8,mp-570315
2.1845000000000003,-1.4681287123504578,Cs12Nd4P8S32,mp-572442
5.9417,-2.852710418627873,Cs8B40O64,mp-581194
0.9345,-3.129489514372666,Ta8Hg8F44,mp-581413
0.9885000000000002,-0.579438959131773,Rb2Re6Br20,mp-582648
1.2385000000000002,-1.0127062830468752,Tb4Cu4Pb4Se12,mp-601286
3.6054,-3.0602520795,Ba2Sm1Sb1O6,mp-6037
3.6184,-1.7412903802249995,K4Pb8Cl20,mp-607267
0.8371,-0.5722153905226298,Rb8Se20,mp-620372
2.1846,-2.106077556962644,Rb8Cr8As8O36,mp-622624
0.996,-2.378880165624999,V18O42,mp-622640
0.4613,-1.6462048453846154,Zn2Cu1As2O8,mp-6278
3.2153,-3.1210868583796287,Li4Ti2Si2O10,mp-6332
5.3041,-1.8408969533512496,Ga2H6N2F6,mp-643759
5.254999999999999,-3.1955832243124997,Nd16B48O96,mp-645340
1.6669,-0.8651294765162052,B16Pb16S40,mp-662553
1.6519,-2.354669665701999,Zr16N16O8,mp-675993
2.821,-2.362987526464,Tl8Sn8F24,mp-676130
4.6568000000000005,-3.661122426736666,Na3Sm17Si12O50F2,mp-677015
4.9459,-3.0621863803775513,K4Ba4P4O16,mp-6812
1.7349,-1.1925645717519842,K16Ta16P16S96,mp-683955
3.913,-3.1022359042391314,Ca3Ta1Ga3Si2O14,mp-6853
1.1326999999999998,-1.761060959063684,Mn2Sb4Pb10O22,mp-687227
3.0533,-0.40540717741339904,Cs2Ca1H4,mp-697133
2.4946,-2.074227876955,Nb4Cl16F4,mp-707060
4.7445,-1.6824324450147268,Al4H24Se6O30,mp-707424
3.3105,-0.4529012940219993,Na12H24Ir4,mp-707836
3.3549,-1.188371435787,K8H8I16O48,mp-720407
4.1748,-0.4656354549496111,Cs2Mg1Fe1C6N6,mp-7331
5.6717,-1.9011627851307016,Rb4H12S8O32,mp-733612
5.0708,-1.4989825610909524,P2N2O2,mp-753671
2.3173,-3.7556082500833337,Yb4Ti4O12,mp-754225
2.5286,-1.9926084857,K8Mg4O8,mp-755802
0.7491999999999996,-2.426088115,Pr4Bi4O16,mp-756241
3.1213,-2.629988228437501,Li8Fe4Si4O16,mp-759575
2.6584000000000003,-1.7391532072836535,Bi14S1O24,mp-759924
1.9542,-2.1804546154536832,K2Mn3V2H2O10,mp-762295
5.341799999999999,-0.15226329796888885,Be6H12,mp-768203
4.8522,-2.7281139040641174,Ca4As8H4F52,mp-778977
0.8497999999999997,-1.3310901894612068,Rb1Tl1O2,mp-8176
5.5739,-1.8571801256733544,Al8H64S12O80,mp-850293
2.1495,-3.0269251270833326,Ba2Sm4Pd2O10,mp-8515
4.0445,-1.89355392129092,Rb16H16C12O40,mp-863420
0.9868,-1.2779752164399252,Cs2Ta2Ge2S10,mp-865606