band_gap,formation_energy_per_atom,full_formula,task_id
2.481,-1.4182902216177782,Tl2Sn1Cl6,mp-27832
2.5769,-1.20985104884,Tl2Te1Cl6,mp-27833
1.6995,-0.343593165,Hg6Te4Br4,mp-27853
2.9285,-1.901653449375,Sm2Br6,mp-27976
4.2243,-2.137818178199845,Cs8I24F128,mp-28578
0.12739999999999976,-0.7611212799999993,Sc1Sn1Au1,mp-2894
1.2505000000000006,-0.13008443554945012,Si2Cu8P16,mp-28995
4.1353,-2.09177461617075,Se4F16,mp-29172
3.4482,-0.9015545511666664,Na4Al4I16,mp-29395
3.2079,-1.2746574716890908,Ge12Cl32,mp-29688
2.6778000000000004,-0.4815942474242425,Ag4W12Br28,mp-29718
0.9614000000000004,-0.6871727593333331,K8Sn4Te12,mp-29835
2.5779,-1.2285537053363096,Na6B2S6,mp-29976
1.5309,-1.5964056323471787,Rb12Br8O2,mp-30005
1.6189,-3.289919836041667,Gd12Re4O32,mp-30137
0.3855,-1.047120120357143,Sr24P16,mp-32635
0.26949999999999985,-0.9003189650000003,Sc1Ni1Sb1,mp-3432
0.6400999999999994,-0.3055700234375003,Tl9Bi1Te6,mp-34361
1.5412,-0.2885608213541673,Ag3Au1S2,mp-34460
2.0983,-3.09895817285,K1Ta1O3,mp-3614
2.6987,-3.512851299711819,Na3Ce1F7,mp-38102
3.0544,-2.3747999996726192,Ba3Ge12O27,mp-3848
3.9572,-3.3414587016866664,K2Na1Ti1O1F5,mp-42190
0.6467999999999998,-2.5167864837500007,Nd4Rh4O12,mp-4582
2.2028,-3.2688334412187503,Pr2Se1O2,mp-4764
1.6488,-1.3504260773000003,Na2Hg1O2,mp-4961
2.1502000000000003,-1.4569960909821436,Er8P8S32,mp-5036
3.9721,-2.1506006436398457,Rb1In1Mo2O8,mp-504506
1.6888999999999998,-1.266588202265626,Co4Se4O16,mp-504678
0.0009999999999994458,-0.7254292507499999,Na4Zr4Cu4Te12,mp-505173
1.0179,-0.9461393657457696,Bi8Se16Cl28,mp-505564
1.3752999999999995,-0.05736225798275853,Cs2Pt1C2,mp-505825
1.1220999999999997,-0.8530100574526526,In10S10Br2,mp-510347
4.283,-3.227700902453704,Sr8B8O20,mp-5401
3.0391,-0.8158749648267503,Se8Cl32,mp-540675
1.8081000000000005,-2.376988116309524,Sr4In8O16,mp-540688
3.9553,-2.5369966694541564,Mn4P8Pb4O28,mp-541468
0.06219999999999981,-2.0078922595312507,Eu4Dy4Cu4S12,mp-542765
2.902200000000001,-1.5085794875000005,Tl4C2O6,mp-543045
1.9443,-2.323672600924167,Ba2Fe2Se2O1F2,mp-549058
0.3777999999999997,-1.2685397172187494,Bi2Se1O2,mp-552098
3.1728,-3.8449949881726666,Na1Hf2V1F11,mp-554121
0.6081000000000003,-2.408433836229584,Ba10Os6Cl2O30,mp-554501
3.5717,-2.5511716603571437,Li2Sn4P6O24,mp-554917
1.3174,-2.9791238553249566,Rb2Mn1F5,mp-555014
4.1445,-1.914985028426724,Cs8C8O16,mp-555131
2.7963,-2.489628479377778,Na6Zn9Si6O24,mp-555300
1.8901,-1.4585703298611117,K12Na2Au4I2O16,mp-555392
1.9427,-2.151016518571429,Li12Zn6Sn18O48,mp-555965
1.8738,-2.091812708273636,Tc8O20F16,mp-556442
4.0946,-3.5147335096822223,Li2Ca2Cr2F12,mp-556792
3.7063,-2.1104101953379995,K12Te12O24F12,mp-557231
1.8279,-1.9989318198199808,Rb4Sb8O22,mp-558023
8.1387,-3.1308971297466672,B8F24,mp-558149
6.7538,-4.33994689587463,Rb4Lu12F40,mp-558186
2.6263999999999994,-2.6860122446078427,Ca6Ti2Be4Si4As12O40,mp-558370
0.2431000000000001,-3.0412636442105274,Pr5Ru2O12,mp-558974
3.3478000000000003,-2.67790710125,Er8Ge8Bi8O40,mp-559109
2.1002,-2.657857263764881,Ti16S16O80,mp-559283
4.2529,-2.6343011535330434,Na8Al6Ge6Cl2O24,mp-559286
2.927,-3.5516199313125,Sm2S1O2,mp-5598
3.1791,-1.9299869705,Na10Bi4As10O36,mp-560658
4.2047,-2.5216370134132653,Na24Bi8P16O64,mp-561083
4.2207,-3.744071880903333,Na1Zr2Mn1F11,mp-561353
1.4562000000000002,-1.4392795555913795,Cs8Na12Tl4O16,mp-562541
4.1542,-1.0851420574484358,Ba4Sr8P24N48,mp-567486
1.1192000000000002,-0.4964515869726562,Cd2Sb4Se6Br4,mp-567556
0.7554,-1.437679529864046,Cs2Ag1Au1Cl6,mp-567776
0.8891,-0.2395557208571432,Be24P16,mp-567841
1.0313,-0.3833189538888888,Hg24Bi4Sb16Br28,mp-568828
1.7325,-1.087151837701149,Cs2Er2Zn2Te6,mp-569107
3.4614000000000003,-2.008860249939333,K12In4Cl24,mp-569132
1.0267999999999995,-2.2741674838814285,Ba6Zr12Be2Cl36,mp-569563
1.6483000000000003,-0.3361636954761905,Sn4Hg28P16Br24,mp-570135
5.3388,-2.47743567219738,Cs2Li1Lu1Cl6,mp-570379
0.8942000000000001,-0.762960939347284,K2Ti2P2Se10,mp-571544
3.605,-2.0036666539609365,Sm8Se20O52,mp-573109
1.9261,-0.8159005695468751,K6Ta4Ag6Se16,mp-582161
0.6482999999999999,-0.297560571818182,Tl44Te22,mp-582753
0.7798999999999996,-3.339927627291667,Sm2Ti2S2O5,mp-5999
4.3068,-3.3988941741666663,Ca4La1B3O10,mp-6076
3.5559,-1.6145570861120009,As12H4O24,mp-626378
1.1490999999999998,-1.26892601315625,Na1Cr1S2,mp-637292
4.1596,-3.175446494632576,K24Y24B32O96,mp-642313
1.474,-0.49145235932528397,Te4Mo6Se14Br20,mp-645663
1.3815,-0.9891336513202782,Fe4S4Cl28,mp-649334
0.08360000000000012,-2.87594521975,Ba2Ho1Ru1O6,mp-6609
4.2356,-3.3985817938855547,Ca5B3O9F1,mp-6632
2.5838,-3.303573204902343,Sm16Si8S12O28,mp-6671
3.7417,-1.6970322868199998,Al4Bi4Cl24,mp-672273
0.8193000000000001,-1.9624946461920016,Mn8Fe8O24,mp-674482
0.4843000000000002,-2.4723639608928574,Sm4Eu2S8,mp-675037
0.3305000000000007,-2.8773693320192315,Ta8Pb6O25,mp-676937
1.2751,-0.5225641127663384,K8Re12C8Se20N8,mp-680168
3.3100000000000005,-1.5068264772115385,Ho4I12O36,mp-683980
2.9633,-3.0753484838777783,Na6Al4Fe1Si8O26,mp-684864
3.2017000000000007,-3.094326944500001,Ca4Gd8Zr4Ga16O48,mp-686296
5.7523,-3.559307520576069,Cs3Tb1F6,mp-696965
5.369999999999999,-2.338766465345428,Sm2P6H10N2O20,mp-697974
3.1138,-0.5049622957839993,Sr8Al4H28,mp-697977
0.5102999999999999,-2.7067412542708333,Ba10Re6O32,mp-698206
4.7164,-3.320747972813157,K16Mn16Be24F96,mp-699937
0.6126000000000005,-1.322648369531251,Zr2Tl2Cu2S6,mp-7049
5.5979,-2.3820915279177144,Ba4P8H16O32,mp-706400
0.3106000000000009,-0.5637075749999999,Al2Os1,mp-7188
5.3518,-2.2455012868486675,Na4B12H16O28,mp-720642
5.7435,-2.5445736578292864,Ca4B12H12O28,mp-722262
2.0706,-1.3023074999827586,Cs2Hg1O2,mp-7232
2.5401,-2.6975885498228576,Ba2Fe3P6H1O22,mp-735530
2.0013,-1.7211107824371428,K4Co8As8H4O32,mp-746371
1.0341999999999991,-2.599425538437501,La8S12,mp-7475
3.1323000000000003,-3.8276564206770822,Sc4Ti2O10,mp-753401
1.9556,-2.519216562723652,Li2V2P2H2O10,mp-753560
1.0686999999999998,-1.6195062895628092,Rb8Fe8O12,mp-755676
5.1778,-2.5320172846361233,K8P8H8O24F8,mp-758619
1.5336,-1.5541144620000005,Na12Zn2O8,mp-7664
2.9749000000000003,-3.815819672689395,Ho8Ti8O28,mp-768695
3.6112,-3.3346305999999992,Ho8W4O24,mp-775211
2.7066,-2.9356567732142858,Li8Ti12Ni4O32,mp-775326
0.4158999999999997,-0.3156342916249999,Na8Sb8,mp-7944
1.264,-2.467502309685604,Rb1Ru1F6,mp-8014
3.5279,-2.0478953571142235,Cs4Na2As2O8,mp-8314
2.8999,-1.555634990059524,Ba12Ga24S48,mp-849286
1.2655999999999998,-2.2196495937520457,Rb4Zr6C1Cl18,mp-862605
0.052999999999999936,-1.5784610183047618,K8Zr6B1Br20,mp-866664
0.39360000000000017,-2.1169131700781256,La6Mn2Al2S14,mp-866692
2.5615,-2.6666287305000016,Li2Cr5Si4O14,mp-867580
1.9672,-2.4357402107785218,Rb2Hg1F4,mp-8962
2.3621,-2.18086922065625,Na1Tm1S2,mp-9076
2.2822,-2.134842398367458,Rb1Pr1S2,mp-9362
2.3824000000000005,-2.1697048896174573,Rb1Tm1S2,mp-9368
0.9593000000000004,-1.951254786964286,Yb4As2O1,mp-9799
4.7997,-0.29594128094781585,Cs2Ga2H8,mp-984550
2.494,-3.4025414752675003,Ca1Mo1F6,mvc-11084
1.4856999999999996,-2.1059241707812504,Li1Sc1S2,mp-1001786
4.531000000000001,-1.9034925697563971,Ba3P6N8O6,mp-1019524
4.5761,-3.3092431874214285,K2Ca4Si8O21,mp-1019746
4.3740999999999985,-2.776012933043583,Rb4Mg4B4O12,mp-1020633
1.1713000000000005,-1.3701384767968756,Tm1Tl1Se2,mp-1067280
2.5747,-0.6752907407466664,Sr2H6Os1,mp-1078677
0.8828,-3.2044398333925006,Ba2F6,mp-1080821
1.7106,-1.3450373718229165,Sr2Fe4Se4O2,mp-1095252
2.127,-0.8886971185848218,Ca4P4Se12,mp-11007
2.9793000000000003,-1.4752357707668828,Cs4Si2S6,mp-1103520
0.34289999999999976,-0.20902230787499976,Na16Sn16,mp-11051
1.944,-1.7983122634375,Li1Au1S4O14,mp-1105750
1.1494,-2.231468465851429,Li2Mn2Cr2O8,mp-1176640
2.0284,-2.1251857604561106,B4O8F12,mp-1182442
0.08340000000000014,-0.2728961124999998,Li1Lu1Tl2,mp-1185385
0.5877000000000003,-1.3311568859999994,Lu8Te12,mp-1189748
2.4697,-2.2930440081041668,K4V4Co2O14,mp-1190373
2.9669000000000003,-2.4204000493154765,Sm2Co1Te2S2O14,mp-1190452
0.034399999999999764,-0.4498753972916667,Nb12Al8C4,mp-1190604
2.0075000000000003,-2.5846493934375,Ba4Fe2Ge4O14,mp-1190820
0.17240000000000055,-0.6761051690277771,Ho4Cr4B16,mp-1191543
0.04269999999999996,-0.5870803969696978,Dy6B14W2,mp-1191614
0.6848000000000001,-1.0096400166326531,Ba12Al4P12,mp-1192373
2.3701,-2.264015662400862,Na2Nb4Se4O19,mp-1192640
2.3500999999999994,-2.32784392078,Na4Mn4V4O16,mp-1193468
0.0061999999999999824,-1.1665981493888549,Rb12Fe4S12,mp-1193685
5.775600000000002,-3.7888104781315377,Ca4Al2Pb2F18,mp-1193801
3.725,-2.5029243955815335,Cs2Na4Fe6P8Cl2O28,mp-1194719
0.14119999999999955,-1.174568704866072,Ce4Tl4P8S24,mp-1194799
2.4069000000000003,-0.9451789056481488,Ag4Bi4I16O48,mp-1195262
4.5791,-1.5577153042514278,Ba6C12N12O12,mp-1195678
2.0946,-1.0742278553404294,Cs8Ge2P8S24,mp-1195705
3.3016,-2.144952904307464,K2Co1P4H8O16,mp-1195899
5.2169,-3.46223024622852,Rb12Sc8Si16O40F20,mp-1196025
3.1950000000000003,-1.5802026307031252,Te6As4O22,mp-1196688
2.2348,-2.198159979246711,Na6Fe2S6O24,mp-1196866
1.8656,-1.945024254563492,Cr4B8Pb24O48,mp-1197022
4.8376,-0.5474770701408563,Al4P8H72C24Cl12,mp-1197086
2.7395,-3.14670399141144,Cs2Ti4P6O20F8,mp-1197745
3.7496,-3.0043787287592587,Ba8Na2Al4B16Br6O36,mp-1197875
2.6801000000000004,-2.410509543333333,Sr8V16Te8O64,mp-1198767
2.5914,-2.1815998529765634,Sr8V8Se12O52,mp-1199170
4.585299999999998,-2.6969368307239594,Na4B20Pb4O36,mp-1199541
4.4326,-2.4454220020790145,Ba4Cd2P8H12O32,mp-1199629
3.6954,-2.6041752219037355,Rb4Nd4Mo8O32,mp-1200745
3.3567,-1.9533405094736842,Ge6Sb8O24,mp-1201722
0.7521000000000004,-1.1000194851562504,Ba4La4Sb8Se24,mp-1201929
2.721,-2.087525894216954,Ti4Pb4S24O84,mp-1203799
2.2768,-2.5149788597813343,Eu32C16N32F40,mp-1204426
0.009400000000000295,-1.341159986135833,Ce16C4I24N4,mp-1204612
1.7729,-2.78909536614774,Rb2Re1F6,mp-1205863
2.056,-2.2533133532500003,Ba2Li1I1O6,mp-1207120
3.4925,-2.40960542386875,Tl4Sb2F10,mp-1208164
2.0776,-2.1537878353846165,Tl4V6O16,mp-1208174
3.2843,-2.4537690543749995,Tb4Tl4Mo8O32,mp-1208393
4.858700000000002,-3.80793805921875,Tb8Si4O20,mp-1208518
3.3988000000000005,-2.6782674191954023,Rb2Ho2W4O16,mp-1209334
1.7658999999999998,-0.8797983802126433,Rb4Hg6Ge4S16,mp-1209424
2.0283999999999995,-2.001665862604167,Nd8S8I8,mp-1209894
3.1141,-2.24180942052381,Na12Ga12Ge12O48,mp-1210845
4.0161,-2.6420759148333333,K1Lu1Mo2O8,mp-1211421
0.8044000000000002,-1.0078132017857149,Li4Ca44Sb36,mp-1211639
3.1251,-2.7228680122389166,K2Rb1Sc1V2O8,mp-1211745
5.2204,-2.467060322251157,Mg15Pb3S18O72,mp-1211946
6.7518,-3.7910589083687496,K8Dy4F20,mp-1212010
0.1604000000000001,-2.5015647915375,K8Ce4Cl20,mp-1212138
3.3345,-3.564335355104168,Gd4Be4Si2O14,mp-1212449
0.4773999999999998,-4.098937603392501,Eu2Zr2F12,mp-1212698
5.649,-2.662258351031648,Cs8Ca8S12O48,mp-1213739
2.2466,-1.9799607985597831,Tb6Mg1Ge2S14,mp-1217642
0.4781999999999997,-0.982301745693966,Rb1Mn1Cu1S2,mp-1219557
1.8674,-2.005724178342392,Pr6Cd1Si2S14,mp-1219860
1.0917000000000003,-2.0168291059510874,Pr6Mn1Si2S14,mp-1219863
1.0271,-1.1832789310833334,Na2Tl2O2,mp-1220867
1.4318999999999995,-2.8058079666341507,Na1Mg3V3Cr3Si6B3H3O31,mp-1221086
0.2830999999999997,-1.0016874215048082,Na4Eu1Ge2Se6,mp-1221197
1.1116,-2.1198925826902184,La6Mn1Si2S14,mp-1223191
3.035,-2.6111657122777783,K2Nb2W2O12,mp-1223396
3.2307,-2.664973556163691,K8Ti2Sn6P8O40,mp-1224290
1.6558000000000002,-2.950713746931818,Dy4Fe2Sb2O14,mp-1225341
0.5262,-1.5401022196788794,Cs2Ta2S6,mp-1225870
2.2505,-2.634762118576446,Cs1V1Zn1P6O18,mp-1225904
0.028999999999999918,-0.7638493234920634,Ca3Ag3P3,mp-12277
1.8797,-3.01051751513158,Ba4Sc1Re1W1O12,mp-1228167
5.099,-3.3314426639011003,Ca19Mg2P14O56,mp-1228644
0.13119999999999976,-0.5634723399107132,Al1Cr4Cu1Se8,mp-1229004
0.5217,-2.8360685787000013,Na2La4Os2O12,mp-12337
1.2094,-1.7903612266536841,Be4Co2N4F28,mp-1238119
3.4122,-2.7847344081527794,K4Ti2O6,mp-13133
0.0015000000000000568,-0.10302777550000038,Cd24As16,mp-1372
0.4399999999999995,-0.43580304218750027,Tl2Cu6S4,mp-13829
0.6341999999999999,-2.3136937293750006,La8S16,mp-1508
1.432,-1.1193233133597882,Sr32Ti8P32,mp-15500
0.0037000000000002586,-0.3841032659057968,Pr6Co58Si8B20,mp-16084
0.010299999999999976,-0.4162234315579717,Tb6Co58Si8B20,mp-16088
3.0331,-1.813141034993844,Cs4Er4Si4S16,mp-16972
0.8203000000000005,-1.3081965916666665,Ba4La4Cu4Te12,mp-17063
3.4092,-2.2764875034065954,Fe4Ni2P4O16,mp-17631
1.5030000000000001,-0.7404237628017243,Cs8Ga8Te16,mp-17688
5.0581000000000005,-3.229466614761905,Li6Al6Si6O24,mp-18220
5.1537,-3.039412831898148,Mg8B8O20,mp-18256
1.3144,-0.8099109344261852,Rb12As4Se16,mp-18305
2.1198,-0.9400433073571428,K12Al4Te12,mp-18378
2.4814000000000003,-2.5962515873527763,Rb4Fe4P8O28,mp-18396
0.999,-1.9369331087085704,Mn2Fe4O8,mp-18750
0.7724999999999995,-1.9393093870379998,Mn6Te2O12,mp-18795
0.24349999999999986,-2.747249883333332,Pr2Cr2O8,mp-18863
1.7983000000000002,-2.736315386583334,V2B2O6,mp-18946
3.0368,-2.5845535984736854,K4Sr2V8O24,mp-19075
3.2404,-2.423854402500001,K2Na2V4O12,mp-19432
3.5068,-2.4460702925,Sm4Tl4Mo8O32,mp-19480
1.8964,-2.3194794375000005,Ba4V8Co8O32,mp-19504
1.3814000000000002,-0.8274336324479172,In4S4,mp-19795
0.8328000000000007,-0.4331866109375007,La4P28,mp-200
0.919,-2.441074593935186,Ba4In4O10,mp-20546
0.0026000000000001573,-0.10079498125000086,Fe3Ge1,mp-20711
2.2269,-2.2269866433925003,Ni1Pb1F6,mp-20854
1.0499,-0.41416250718650777,K4Na2In2P4,mp-21511
1.1366,-1.4705282857142856,Pb12O16,mp-22633
3.9396,-2.0433142387217558,Rb8Cd2Cl12,mp-22930
2.2126,-1.3691706566785715,Na4I2O1,mp-22937
1.7752,-0.6688260030208338,Sb4S4Br4,mp-22971
2.4925999999999995,-2.863431868125001,Sr2Ta4Bi4O18,mp-23089
2.1621,-1.2539411996425,Br2F6,mp-23297
3.554,-1.8101874735249652,Rb4Cd4Cl12,mp-23390
3.6614,-2.6080769346728156,Cs4Sb4Cl4F12,mp-23576
2.8136,-0.2570510270219998,Na6Al2H12,mp-23705
1.6789,-0.9230884458750004,Ca8H4N4,mp-24119
0.05119999999999969,-0.14873566916666667,Pr1Cu5,mp-2462
1.8148,-2.0318581780681817,V8Co8O28,mp-27156
2.0853,-0.07593371749999989,Au4I4,mp-27725
1.4278,-0.7846501905112676,In8P12S36,mp-27753
2.2697,-1.4339522520619046,Nb2P2Cl20,mp-27787
3.0178,-1.7324960259226192,In8Te12O36,mp-28091
4.5287,-2.6693951843164827,Rb4Dy8Cl28,mp-28094
2.4701,-2.508805622923333,Na2Gd2Cl8,mp-28156
5.2712,-2.1348060434856246,S8O8F16,mp-28257
0.00019999999999953388,-0.5809200931742857,Ba16Ni12N14,mp-28685
4.2606,-2.1572453222366668,Dy3Al9Cl36,mp-28714
5.6196,-3.862526170677308,Li6Zr8F38,mp-29040
2.062,-1.5409546772443188,Fe16Se16O56,mp-29100
1.0868000000000002,-0.42583980898275897,Cs16Ga8Sb16,mp-29372
1.3705,-0.8717693432844449,Pd6Cl12,mp-29487
0.03819999999999979,-0.5262796877500001,Ba8Ga16Sb16,mp-29938
1.3129,-0.4093679922321429,Hg12S8I8,mp-29956
3.8334,-1.4523122641346158,Sc2I6O18,mp-30002
4.4951,-3.7016378839999993,Y12Al20O48,mp-3050
1.9965,-0.8142185899107142,Al2Cd1Se4,mp-3159
2.4002,-2.8914316901086963,Ba3Nb1Fe3Si2O14,mp-31758
2.8889,-3.5007258293124988,Nd2S1O2,mp-3211
3.3708,-3.1377172392500015,Ba3Ta2Ni1O9,mp-32310
1.8679,-0.5076072603799999,Au4Cl4,mp-32780
4.1716,-3.83391907625,Sr4Hf4O12,mp-3378
0.05440000000000023,-0.472777135,Hf2Cu4Te6,mp-3650
2.0437000000000003,-3.1434916395606067,Na2Gd6Ti4Sb4O28,mp-40451
7.5985999999999985,-3.384006971870476,Li12Be6F24,mp-4622
1.0327000000000002,-0.4902978514008618,Cs4Nb4Cu8Te16,mp-505321
1.4025999999999998,-1.2452461139318185,Na12Mn2S8,mp-5055
1.964,-0.5269449681299996,N4Cl4O4,mp-505727
3.298,-2.319504273452381,Ga4B4Pb4O16,mp-505743
3.1174,-3.0907076317500017,Na2Gd2O4,mp-5088
0.9901,-1.7209608451562497,Gd4Cu4S8,mp-510471
0.5714000000000001,-1.5518252846149998,Mn1Cu1O2,mp-510589
3.6578,-2.3583655088392868,Ta2Tl2Ge6O18,mp-540634
2.5545,-0.8371068393055564,B16S32,mp-540668
2.5788,-1.7370322312376854,Cs8Sn8O12,mp-540796
0.4830999999999994,-3.086938022976192,Eu4B8O16,mp-540879
0.9032,-0.5777279830555556,Na20Hf4As12,mp-541236
1.7469,-1.0647195185829743,Cs4Bi4S8,mp-541378
4.6239,-2.7689108949509853,Cs4Te4F20,mp-541628
0.005899999999999572,-0.3730296078333325,Ca2B5Os3,mp-542455
4.556699999999998,-2.8283228391754376,Na12Ca4B20O40,mp-542719
5.2906,-2.49040498814738,Cs2Na1Ho1Cl6,mp-542951
1.3088000000000002,-2.4654859035325,Y1Bi2Cl1O4,mp-552604
3.7453,-2.5264574555277783,Na2Zr4As6O24,mp-553912
1.712,-0.910313468539064,K4Sn4As4S20,mp-554119
4.2923,-2.633099438419644,K4Li4Zn4P8O28,mp-554164
3.367,-2.476319316583333,Nd4As8O18,mp-555063
4.8159,-3.2105269873300006,K2Na4Y2Si12O30,mp-555155
2.3702,-2.8850761982202378,Ca2Nb4P12O42,mp-555424
3.7369,-3.0441677197233745,Tb5Se2Cl3O10,mp-555909
1.0821,-0.9722324124498336,Ag2Bi2S2Cl4,mp-556094
0.8484,-1.5885656954852951,K4Na28Pb8O28,mp-556521
3.1166,-2.3423984552616472,Rb2Nb2As2Cl2O10,mp-556645
3.3727,-3.1648137270944443,K4Ti2Si6O18,mp-556719
2.7409000000000003,-1.2019020530752782,Ag2As2S32F12,mp-556837
1.7663,-0.5947672130952377,Sn2S32I8,mp-557101
2.4932,-2.4331490437708334,Na12V18O42,mp-557315
3.6651000000000007,-2.5326874879741395,Cs2Al2Sb2O7,mp-557359
3.4168,-3.412251966799132,Na4Gd4Mg2Si8O24F4,mp-557538
3.4917,-2.9066042564499996,Na2La2Mg2W2O12,mp-558194
5.4555,-3.4005325005382976,K6Al8P4O16F18,mp-558240
0.8737999999999999,-1.2938873070687509,K12Cu4N20O60,mp-559099
1.7894,-0.5844478995648927,Cu12P32S24Cl12,mp-559558
4.4123,-3.2781748380729163,Hf4B8O20,mp-559617
3.1614,-2.9758247931944446,Li12Gd4B8O24,mp-559706
5.3098,-2.662070141927084,Li4Pr4S8O32,mp-559719
1.2978,-1.1132050122172616,Ta4S9Br8,mp-559724
1.1197,-0.7464844215059531,K8Ag24Sn12S40,mp-559880
3.828500000000001,-2.7787888711076185,Sr10As6Cl2O24,mp-559965
4.1281,-2.960167475564,Na6Fe2F12,mp-560311
4.0999,-2.9961814205829653,K1Rb2Fe1F6,mp-561067
2.3845,-2.5145876106822223,Sr6Cu3Cl3O6,mp-561243
4.0658,-3.1928892974866665,Al8Ge4O16F8,mp-561437
2.8927,-2.0985688454775,Sr4Co2Se4Cl4O12,mp-561998
4.8039999999999985,-3.687162937386365,Y2Si2O7,mp-5652
0.32759999999999945,-0.7957750115000001,Ca8Cd4Sb8,mp-569267
3.8526,-2.002422684568069,Cs12Bi4Cl24,mp-570123
2.5487,-0.60007813625,Tl4Ga4I16,mp-570306
1.173,-0.6621075577634101,Rb6Ag2Sn6Se16,mp-571164
4.5771,-0.4014450052931249,Y8B24H96,mp-571369
0.15280000000000005,-1.2321823082974142,Cs4Ce4Si4Se16,mp-573969
2.7756,-3.015052311325757,Gd12Ge12O42,mp-581229
4.24,-2.2546527916742307,Ni4As12H12O4F72,mp-604978
3.542,-3.3260251738888886,Sr32Al48Mo8O128,mp-6120
4.2342,-3.4924028862083327,La2Sc6B8O24,mp-6217
1.2294,-0.3553737889171629,K4Cu4P8Se20,mp-622199
1.8199,-2.761511603,Ba2Li1Re1O6,mp-6270
4.681,-0.3278686043099999,H2Br2,mp-632229
1.0201000000000002,-0.95821078534,Re1H8N2Cl6,mp-632724
3.3512,-0.4266301396355551,Mg2H6Os1,mp-643002
5.701300000000002,-2.627448446064644,Ca2P4H4O14,mp-643898
2.7182,-2.163902597058823,Cr8Mo12O48,mp-647862
2.5478,-0.1726499615104169,Li2B26C4,mp-655591
4.1769,-0.6210314786731255,Na4C4S4N4,mp-6633
5.0827,-2.8149774397820533,K8Li8B32O56,mp-6648
3.5094,-3.217894018972103,Cs4Ti2Si12O30,mp-6748
1.5033,-1.3330947963499995,Na3Gd1I6,mp-675237
3.3075,-2.0491313689375,K24As8O32,mp-680301
3.8894,-2.750703876387345,Cs8Sb24F128,mp-683925
0.9170999999999996,-1.4172802152500004,Sm16Te24,mp-684911
3.2776,-2.601857289999999,Hf6Mo12O48,mp-687090
2.6121,-2.0343945867204285,Fe2P6H10N2O20,mp-696483
2.5119,-1.5433153934215391,Fe2H8C4O12,mp-698316
4.8454,-3.7447942401136376,Lu2Si2O7,mp-7193
2.148200000000001,-0.9607900040848214,Sr4P4Se12,mp-7198
1.1727,-2.822547063705,Na9Ca1Fe10Si20O60,mp-720248
2.8059,-2.5893607041666677,La2Ag2O4,mp-754535
2.5587,-1.0185535470312503,Ta1Tl3S4,mp-7562
2.3474000000000004,-2.494905885079365,In2P2O8,mp-7566
0.6273000000000004,-2.96119643613806,Sr16V12O39,mp-757304
4.6331,-1.8132040618160896,Zn4P8H28N4O32,mp-758284
2.8232,-3.03739143962963,Li4Ti12Zn6O32,mp-759849
3.8611,-1.9449514333296825,In4P4H16O24,mp-766835
3.1961,-2.2800259200494515,Na6Cd2P2C2O14,mp-767430
2.8709,-2.253104726203297,Na6Co2P2C2O14,mp-770948
2.0909999999999997,-2.0493462465175,Zn1Pt1F6,mp-8256
0.8301999999999996,-2.2472891746614594,Ba12Zr8S28,mp-8570
3.0131,-1.4259069070283334,In2Cl6,mp-862983
0.32070000000000043,-0.3669257750000003,Nb1Al1Fe2,mp-865280
0.2028000000000003,-0.6984968338124999,K4Sr8Cd8Sb12,mp-866639