band_gap,formation_energy_per_atom,full_formula,task_id
0.0,-0.5444281412499992,Li1Ge1Pt2,mp-1185305
0.41810000000000036,-0.026427840833333296,Mg149Sn1,mp-1185637
0.0,-0.21705854500000044,Nb1Ga1Tc2,mp-1186224
0.0,-0.8201495656249991,Pm1Sn1Pt2,mp-1186649
0.0,-0.4069814620833334,Ti2Mo1Os1,mp-1187420
0.0,-1.1743701449999993,Yb1Y1Pt2,mp-1187509
0.0,-1.0831398868402786,La10Pb6S2,mp-1188606
0.0,-0.7757317655555561,Zr10Sn6As2,mp-1188640
0.0,-0.6676845805555547,Dy4Si8Mo6,mp-1189145
0.0,-0.37122575222222387,Zr10Te2Pb6,mp-1189342
0.0,-1.046532939411765,Sc4Si6Ir7,mp-1189689
2.9312000000000005,-2.429651511934525,Ho2Co1Te2S2O14,mp-1190336
0.0,-2.24131902764881,Eu2Co1Te2S2O14,mp-1190438
0.40700000000000003,-1.7965543995684528,Tb8P8S8,mp-1190952
0.45140000000000047,-1.7889072820684528,Sm8P8S8,mp-1191565
0.0,-0.65035012,Li8Gd8Sn8,mp-1191877
0.0,-0.5941478337878798,Dy6Fe2B14,mp-1192098
0.0,-0.41335964043478196,Ba3Ge16Rh4,mp-1192163
0.0,-0.30711541214285837,Y20Cd6Pd2,mp-1192597
0.0,-0.3031808094387734,Hf18Mo8P2,mp-1192670
0.10770000000000035,-0.3440065895833329,Dy16In6Co2,mp-1192724
2.0465999999999998,-0.8266249713258931,Na12Sb4Se12,mp-1193265
0.0,-0.3386777549330345,Hf18Mo8S2,mp-1194092
0.0,-1.22444779784,Zr16Pt8N4,mp-1194252
0.0,-1.5483553548076925,Nb8V2S16,mp-1194374
6.0523,-3.110242949659333,K12B12O12F24,mp-1195407
1.3694999999999995,-0.23315282993179606,Tl8Ag8P8Se24,mp-1195701
0.0,-0.10713262657894743,Tm4Co34,mp-1196360
0.0,-0.4204765946052625,Mn32Si32Mo12,mp-1197207
1.6678,-1.8832278470108694,Sr2Au4S8O32,mp-1197529
0.0,-0.4803464581249995,Sc12Cr12Ge24,mp-1197663
0.0,-0.541405040571429,La4In21Pd10,mp-1197789
0.6538999999999997,-0.346359164318182,Ca44Sn12C32,mp-1198370
5.0710999999999995,-1.6496376101289574,Na4Al8H72S16N16Cl4O72,mp-1199124
0.0,-0.1645795714215686,Y8Co56B4,mp-1200125
0.0,-0.5872893883333332,Er22In12Si8,mp-1200148
0.0,-0.796175034285715,Ho42Rh28,mp-1200753
2.0404000000000004,-1.9532418122569455,Ba12Ge4S20,mp-1200759
0.0,-0.7392604794444458,Lu8B24Ru4,mp-1201540
0.0,-0.5101312847916665,Zr12Fe12Ge24,mp-1201558
0.0,-0.4198985737500003,Ce1Al4Ge2Au1,mp-12017
0.9264999999999999,-0.3689657781457587,Cs16Ga22Cl2,mp-1202213
3.7922000000000002,-3.0473859058695245,Ca10V6Cl2O24,mp-1202595
0.0,-0.297926415818182,K8Ag36Te22,mp-1203532
0.0,-2.9890586560326082,K4Na4Eu8Ta4O26,mp-1203993
4.1011999999999995,-0.6261837306834457,B8H104C32N80Cl8O4,mp-1204048
0.0,-1.0789925699999994,Dy2Sb2Pd2,mp-12041
0.24449999999999994,-0.35799924747844836,Cs16Bi16,mp-1205121
0.0,-0.846054931363636,Er7Te2Pd2,mp-1205487
0.0,-0.6104827170000007,La4Os4I2,mp-1205536
0.0,-0.7726448656666669,Nd4In2Au4,mp-1205853
0.0,-0.6126039866666672,Er2Al2Si2,mp-1206326
0.0,-0.5931212344571428,K1Co2P2,mp-1206349
0.0,-0.38904715,Yb1Zn2Ga2,mp-1206522
0.40260000000000007,-0.9306016750000001,Sr2As2Au2,mp-1206525
1.5366999999999997,-1.4924139224045831,Dy1H1Se1,mp-1207186
0.0,-0.3303036805555554,Yb4Mg4Ag4,mp-1207550
0.0,-0.32205878305263186,Zn148Pd42,mp-1208530
0.0,-0.8491785355238096,Na2La2Ag2Te8,mp-1210066
0.9550000000000001,-2.1062220458099996,Sm4Nb24Cl52O12,mp-1210395
0.0,-1.1047745649999996,Li2Pt6O8,mp-1211055
2.069,-1.965355320510417,K1Tl1S2O8,mp-1211257
0.0,-0.8268838592857141,La4Al18Ir6,mp-1211311
0.0,-0.4743254325,La16Cd4Ir4,mp-1211420
4.568,-2.6518304828319996,K4Ho8Cl28,mp-1211594
0.9287000000000001,-2.0666841043160002,K6Zr12Be2Cl30,mp-1211761
1.8162999999999998,-0.7292099069756949,K4Ag4Te4S12,mp-1211783
0.0,-0.8969077601428569,K4Fe2I8,mp-1211993
0.0,-0.47956024416666665,Hf6Ti4Ga6,mp-1212187
0.0,-0.9633234650000004,Ho10Ge4Sb4,mp-1212216
0.0,-0.680551167555556,Ho10Si4B16,mp-1212227
0.0,-0.41054841541666676,Er16Mg4Rh4,mp-1212943
0.0,-0.479247468666667,Er3Ga9Os3,mp-1213036
0.0,-0.5497203818750007,Er10Ni4Sb2,mp-1213207
0.0,-2.826360648333333,Eu8W4O24,mp-1213585
0.0,-0.14669786930555576,Gd2In4Cu18,mp-1213603
0.0,-2.4801468195833336,Ba6Pr2Ir4O18,mp-1214562
0.0,-0.6569807893749999,Zr1Nb1C2,mp-1215222
0.0,-3.2452112536904765,Yb1Gd1P2O8,mp-1215693
0.0,-0.7338300077083328,Ti2Re1Pt1,mp-1217070
0.0,-1.7107718324375,Ti3V1S6,mp-1217148
0.0,-0.4415075922916678,Ti10Cr1Sb5,mp-1217253
0.0,-0.14233648700000004,Sm12Al6Fe22,mp-1219263
0.0,-0.30696095806896506,Rb2Zn3Ge1As4,mp-1219647
0.0,-0.9955946941933912,Sm30P52Ir65,mp-1220044
0.0,-0.7056440355000007,Nd1Fe1Co1Si2,mp-1220157
0.0,-0.4098739448333347,Nb5Cr1B4Ru10,mp-1220514
0.0,-0.4423606027586206,Nb12Tl1Te16,mp-1220786
4.4519,-3.6547687959404764,Na1Nd9Si6O26,mp-1221031
2.7018,-1.900584167658889,Na1Fe2Mo2H3O10,mp-1221050
0.0,-0.2341995749999993,Mn6Si2W4,mp-1221815
0.0,-0.21643394125000034,La1Ce1Ru4,mp-1222913
0.0,-0.8574132670329664,Eu2Zn1P3Pt7,mp-1225253
0.0,-0.5929259933333331,Dy2Ga3Cu1,mp-1225325
0.0,-0.8971330989087305,Er5Co19P12,mp-1225819
0.0,-0.29507239750000025,Co6Si2Mo4,mp-1226069
4.149900000000001,-2.6764971239269038,Cs2Ge1B4O9,mp-1226455
0.0,-0.41466931874999996,Ca1La1Al4,mp-1227048
0.0,-0.5060969126666672,Ce4Ni3Bi8,mp-1227331
0.0,-0.5289543493749997,Ca4Ga1Si3,mp-1227558
2.8043,-3.2489182455555556,Ca4Al6Cr1O16,mp-1227669
2.6180999999999996,-1.3241752329374996,Ba1Ga2Ge1S6,mp-1227983
1.8581999999999996,-2.5944584078947366,Ba4Re2Ni1O12,mp-1228183
0.0,-2.9323373229427077,Ba4Ti1Nb9O18,mp-1228214
0.0,-1.8149580657933333,Cu2F4,mp-1229
0.0,-0.044737643333332855,Ag1Pt1,mp-1229015
0.0,-0.4674627799600006,Li4Fe4N4,mp-1245798
0.0,-0.4433796733333324,Hf4Al8,mp-12657
0.0,-0.6507043050000014,Zr2Pd2,mp-13495
0.0,-0.24087337789999985,Na8Ge8Au24,mp-13674
0.0,-0.25598120874999974,Ho1Pb3,mp-1386
0.0,-1.0013297728645831,Hf2Si2Se2,mp-13962
2.3195,-1.1283197204067459,Hf2P4S12,mp-14444
1.7724,-2.2500815038389286,Nd8Au20F84,mp-14716
0.0,-0.33739326819444515,Ho8C10,mp-15238
1.9352999999999998,-2.1839463370312506,Li1Y1S2,mp-15788
0.0,-3.4070275395059997,Na1Zr2Pd1F11,mp-16291
0.0,-0.32615907409090866,Al18Co4,mp-16488
0.0,-0.3197670641666666,Be8Mo4,mp-1677
0.5398000000000001,-0.44075331166666687,K20Sn4As12,mp-16989
4.707,-3.824637412968751,Ho8Si4O20,mp-17065
0.0,-0.38723177181818164,Ce4Zn6Ge12,mp-17567
0.0,-0.7994657225000008,Zr10Ge6,mp-17706
0.0,-0.8513863330000007,La4Ge10Rh6,mp-18055
0.0,-0.5665186712499999,Sr6Sn10,mp-18192
2.2661000000000002,-2.9653790852272732,Sr6Sc2Rh2O12,mp-18247
2.9997999999999996,-2.4031810943750003,Li1Cr1O2,mp-18793
0.0,-3.127628540442001,Lu6Mn6O18,mp-18808
0.0,-0.23013900000000032,Tb1Tl3,mp-1886
1.4377,-2.4276944832984615,Ca2Mn3O8,mp-18893
2.9829999999999997,-3.2309310725000002,Tb2V2O8,mp-19121
0.0,-0.05049412000000064,Fe1Rh1,mp-1918
0.0,-2.7236263855681826,Ca4V12O28,mp-19347
2.7685999999999997,-1.8853320265104176,Co4S4O16,mp-19379
2.0141,-2.144917273663003,V4Ag8P8O32,mp-19478
0.0,-0.40394401750000064,Nb2Rh2,mp-1963
0.0,-1.0191328583333334,Ce4Al4Pt4,mp-19827
0.0,-0.8041338200000006,Zr2Si2Te2,mp-19917
0.0,-0.7144874090476184,Nb4Cr4P4,mp-20144
0.0,-0.1374401246875001,Cr4Ga2C2,mp-20197
0.0,-1.0878085111874993,Na2Pt6O8,mp-20285
0.0,-0.28534074124999975,Sc1In3,mp-20539
0.0,-0.9028617733333333,Pr3Sn3Pd3,mp-21054
0.040200000000000014,-0.5430938150000003,Ba8Pb4,mp-21246
1.2382,-1.750215349166666,Fe4Te2O12,mp-21437
0.0,-0.6219459949999999,Sr2Ge2,mp-2147
0.0,-0.32303713340332063,Pd34Se30,mp-21765
0.0,-0.9804454603703703,Ho6Si18Rh30,mp-21793
0.0,-0.1151872122666667,K1In4,mp-22481
2.3835,-1.8082387689099995,Ca2N1Cl1,mp-22936
0.4834999999999998,-1.8863717901973793,Cs2V2Cl6,mp-22977
4.9315,-3.290323692210884,Sr10P6Br2O24,mp-23141
2.1496000000000004,-0.36248419499999995,Sb2I6,mp-23281
3.018,-0.48319600430999987,Li1H1,mp-23703
3.6853,-1.4972400499618441,Rb4Zn2H24Se4O28,mp-24182
0.0,-0.6926561349999991,Ga1Rh1,mp-2444
0.0,-0.17201545750000058,Zr2Hg2,mp-2510
0.0,-1.9394129029166673,Re2Bi2O8,mp-27360
1.1726999999999999,-1.2113595972499998,K2Tl2O2,mp-27716
2.9222,-1.9163356618749994,Nd2Br6,mp-27975
3.2086,-2.642890494144736,Li32Nb8O36,mp-28030
2.7447,-1.9207239258333335,Re8Bi24O64,mp-28287
2.5138999999999996,-0.2910556595918367,B12P2,mp-28395
0.0,-0.6194794997222223,Ca1B2Rh3,mp-28705
0.0,-0.33925568333333267,Bi4Te4Pd4,mp-29011
4.0215,-3.7441493577499996,La2Al2O6,mp-2920
3.7736,-2.1323194595454553,Re6Pb3O24,mp-29305
1.9270000000000003,-2.6578015130874997,Sn4O2F10,mp-29590
1.4384000000000001,-0.9316416577166668,As2Cl10,mp-30106
0.0,-0.9884538522222238,Zr2Ti2As2,mp-30147
0.0,-0.3248849044444449,Tb1Ag2,mp-30358
0.0,-0.4530931924999999,Zn1Cd1Pt2,mp-30493
0.0,-0.027362916666666237,Tl4Au2,mp-30571
0.0,-0.3548279887499999,Dy4Zn12,mp-30626
0.0,-0.6270981769999999,Sc2Si6Ni2,mp-3129
5.219799999999999,-1.4758764265878221,H36S2O24,mp-31373
0.26849999999999996,-0.3788317627692308,Na16Sn2Sb8,mp-3138
0.37840000000000007,-2.6061226562499997,Ba1Sn1O3,mp-3163
1.1487000000000003,-2.5068978342016814,Mo4P6O24,mp-32094
0.0,-0.33380258902777804,Ag4O2,mp-353
0.0,-0.16268580985294115,Nd1Sb12Os4,mp-3569
0.0,-1.629406593406593,Ag3P2O8,mp-36383
2.2706999999999997,-0.7648647441266666,Li1Mg1N1,mp-37906
0.0,-0.8067953275000015,La2Si2Ru2,mp-4579
0.0,-0.24483451679687462,Cu2Ge1Se3,mp-4728
0.0,-0.4413584362499998,Mn1Sn1Rh2,mp-4990
0.0,-0.5903040414999999,Nd1Co2Ge2,mp-4999
2.2742,-2.431002504394866,Cs2Pd1F6,mp-504729
0.0,-0.410405826666666,Eu1Au5,mp-510098
0.0,-1.1597195399999993,Gd1Sb1,mp-510403
0.7351000000000001,-0.09611891989247338,Mg2Al4B56,mp-531611
0.0,-0.23804884166666676,Er2Co4,mp-537
0.5072000000000001,-0.30383456873392173,Rb24In8P16,mp-541766
0.0,-0.4940466225,Li1Ga2Ir1,mp-5419
1.6649000000000003,-1.3116686850451247,Rb12Ta8S44,mp-541975
3.2380999999999998,-2.327421852132353,Ho4Te8O22,mp-542514
0.0,-0.4060897325000017,Gd2Ni2,mp-542632
0.0,-0.568467083888889,Dy3Ga9Ni6,mp-542992
0.0,-0.6393211268181815,Er3Si4Cu4,mp-5454
0.0,-2.779899261463333,Ba1Nd1Mn2O5,mp-546665
1.3711000000000007,-2.4754715272825,Tb1Bi2Cl1O4,mp-547125
5.2851,-2.8434610565389242,Rb10B38O62,mp-553925
2.3777999999999997,-2.895768767076719,Ba6Mo4P8O36,mp-554339
1.4015999999999997,-2.655722514285715,Sr2Fe6P6O24,mp-555399
4.6536,-2.2028756200813633,Ca8S16Cl16O48,mp-556040
0.0,-1.8638101580000002,Sr12Cu12Te24O72,mp-557970
0.3536999999999999,-1.3022273251400853,Fe4Cu6Se12O36,mp-558202
0.0,-1.1464556727539064,Ag12Ge2S2O16,mp-558786
0.0,-1.3434559213970583,Bi12Pt12O44,mp-560373
3.3261999999999996,-2.2715406632575754,Zn8B8Pb4O24,mp-560471
1.6103,-3.0038504948513793,Cs2K1Mn1F6,mp-560861
3.6606,-2.247279991472222,Na8Li24Ge8O32,mp-561254
0.0,-2.423820671916667,K2Eu2Mo4O16,mp-566325
0.0,-0.7075555934999997,La1Si2Os2,mp-567203
0.0,-0.8850626925,Hf2I6,mp-568002
0.0,-1.5305036374999998,Ba2Ce2I8,mp-569380
0.04519999999999991,-0.7174799890885417,Ba1Ag2Ge1Se4,mp-569790
0.0,-2.055850904663755,Cs2Ta1Cl6,mp-569885
0.0,-0.346212034090909,Ba5Al5Sn1,mp-570677
0.9568000000000001,-0.7829126517690975,Na48Sn24Se72,mp-571470
0.0,-0.6671227155555555,Pr3Cd3Pd3,mp-571641
0.0,-0.683476395062696,Rb4Ce2Cu6Te10,mp-581778
0.0,-0.6877308325510205,Eu2Co16P10,mp-583224
0.0,-1.1220024785625007,Ba22In12O6,mp-605809
4.612299999999999,-3.3933278071428563,Li4Sc4Si4O16,mp-6224
0.0,-0.5264185973148151,Ca8In16Au12,mp-630875
3.9356999999999998,-0.47987519045931,Cs2H6Pt1,mp-643243
0.0,-0.4425689947968749,Li1Mn9Se10,mp-676780
1.8408999999999998,-0.7471217852500001,Sr2H1N1,mp-690794
4.6579999999999995,-0.9102143753533323,Al4H60N20Cl12,mp-699469
0.0,-0.3227156592857138,Ce2Ga12,mp-711
1.961,-1.7401813747077786,Zn8As4H4O20,mp-721702
0.0,-1.2141405981163638,Nb10N12,mp-7234
0.0,-0.7058396456250007,Y12Pt4,mp-7343
0.0,-0.3603477986666661,Sr1Ag2Sn2,mp-7366
0.6527,-1.43863285175,K4Cd4O6,mp-7534
1.5084999999999997,-2.489081004659092,Ho4Pt4O14,mp-755635
2.8346,-2.953556344040741,Li6V3O3F15,mp-757198
0.0,-3.247484458367187,K6Ta16O42,mp-757546
1.1994000000000002,-0.41005013316666705,K4Ag2Sb2,mp-7643
4.7303999999999995,-3.3947823677274074,Rb2Al22O34,mp-766387
3.7854,-2.453598450337302,Sn8P16O48,mp-766947
3.7485000000000004,-3.2783556394444457,Sm8W4O24,mp-770406
0.2536999999999998,-2.0607310297523815,Li6Mn10Fe2O24,mp-774685
2.2235,-2.359381458920456,Ti3S6O24,mp-775149
2.4425000000000003,-1.76596311534091,Zn16As16O56,mp-779594
0.5475999999999992,-0.665792210357143,Ba2P6,mp-7808
0.0,-1.16103856115625,Li1Ti3Se6,mp-8132
0.0,-0.07805934249999957,Tc6Pd2,mp-861610
0.0,-0.057794477499999886,Ir2Ru6,mp-862620
0.0,-0.31915710000000086,Li1Er2Ru1,mp-862661
0.0,-0.04957911125000036,Er1Mg3,mp-862681
0.0,-0.4027740562499993,Li1Hf2Os1,mp-862684
0.0,-0.31232944812499985,Pm2Zn6,mp-862732
0.0,-0.04133622187500041,Pr12Co4,mp-862762
0.0,-0.1184729925000001,Li1Pm2Os1,mp-862841
0.0,-0.5827126785416668,Pm1Ag1Au2,mp-862872
0.0,-0.33885636937499974,Pm1Mg1Zn2,mp-862937
0.0,-0.5892526462500003,Zr1Cd1Pd2,mp-864607
0.0,-0.7817406566666669,Nd4Ag4As8,mp-864793
0.0,-0.6037929124999994,Mg1Zr1Au2,mp-864920
0.0,-0.4073892849999998,Mn1Al1Ru2,mp-864980
0.0,-0.5679281837500003,Hf1Sc1Os2,mp-865001
0.0,-0.6000392774999996,Be2Ir1Pd1,mp-865003
0.0,-0.8042311150000003,Lu1Mg1Rh2,mp-865271
1.3006000000000002,-0.859537653802084,Tl8In8S16,mp-865274
0.0,-0.3314646487500008,Tm2Al1Os1,mp-865283
0.0,-0.5885672175000005,Tm1Tl1Rh2,mp-865288
0.0,-0.2844301795833326,Tm2In1Os1,mp-865341
0.0,-0.5036905608333324,Ti2Mn1Ru1,mp-865469
0.0,-0.9281386549999997,Lu2Ru1Pt1,mp-865599
0.0,-0.9216849575000001,Lu1Ga1Rh2,mp-865609
0.0,-0.45616118625000035,Li1Pr1Hg2,mp-865738
0.0,-0.6399867837500004,Lu1Cd1Rh2,mp-865796
0.0,-0.2508910499999999,Li2Y1Tl1,mp-865867
0.41670000000000007,-0.30687765224999985,Na2Tl1Sb1,mp-866132
0.0,-0.7794917212499994,Hf1Sn1Rh2,mp-866221
0.0,-0.6468323925000004,Be2Ni1Pt1,mp-866224
0.0,-0.43957076499999914,Sc2Zn1Os1,mp-867243
0.0,-0.6952390824999997,Al2Ni1Ru1,mp-867775
0.47930000000000006,-0.8200403476724141,Rb6Te6,mp-9064
0.0,-0.11834825950191588,Cs5Tl11Cd2,mp-966740
0.0,-0.06684298812499812,Re3Ru1,mp-974455
0.0,-0.47262160500000006,Nd1Sm1Hg2,mp-975049
0.0,-0.42512314166666554,Pr2B4Os4,mp-975738
2.2499000000000002,-2.9672150459722215,Ba2Pr4Pd2O10,mp-9759
0.0,-0.4535469862500001,Zr1Cd1Au2,mp-977462
0.0,-0.7287513558333334,Zr1In1Rh2,mp-977543
0.0,-0.47020935437499967,Pm1Dy1Hg2,mp-983427
0.0,-0.45066207541666703,Dy1Ho1In2,mp-984767
1.2220000000000004,-1.2376469009279987,La2W2N6,mp-989524
3.0533,-1.9651342548082993,Rb2Na1In1Cl6,mp-989547
0.48819999999999997,-0.7947591349280003,La2Co2N6,mp-989643
0.23179999999999978,-1.4663989522135417,Ti2S6,mp-9920
0.0,-0.5419849800000005,Ba2Pd2,mp-1008505
0.44189999999999996,-0.8242588653181819,Na6Sr6Ga2As8,mp-10097
0.0,-0.18635908583333372,Ti1Zn1,mp-1014230
0.0,-0.639882926666667,Li3Ce1Bi2,mp-1018762
0.0,-0.8364387854166667,Li3Sm1Sb2,mp-1018781
0.0,-0.6633723366666663,Li3Y1Bi2,mp-1018782
0.0,-0.44615377361111125,Nd2Zn2In2,mp-1018822
0.0,-0.6849611825000004,Sm2Ge2Ru2,mp-1019109
0.0,-0.18466696285666728,Tc3N3,mp-1019319
2.9786,-2.6759595796249998,Ca12Ga8Ge12O48,mp-1019565
2.4029999999999996,-1.1749449961966663,Ca8Mg24Si8N32,mp-1019579
4.4731000000000005,-2.974301559493315,Cs12Y4P8O32,mp-1019614
3.8545999999999996,-2.5743482510043103,Rb8Ge6B12O34,mp-1020896
0.0,-0.3870736700000001,Er2Zn4,mp-1025096
5.7495,-2.6679279535520837,Na2Er2S4O16,mp-10476
0.0,-1.0486203819999993,Yb1Si2Rh2,mp-10626
0.0,-0.14218530666666673,Sr2Rh1,mp-1063245
0.0,-0.4783483959999998,Eu1Zn2Sb2,mp-1069042
0.0,-0.4500448589999998,Sr1Si3Ni1,mp-1069139
0.0,-0.807155050499999,Nd1Si3Ir1,mp-1070369
0.0,-0.6246948300000005,Ho1Si1Ni4,mp-1071731
0.0,-0.5853486550000001,Sc2Al2Ge2,mp-1077599
0.0,-0.6141868271428572,Si1Sn1Pd5,mp-1077994
0.0,-0.46789801333333336,Er3Zn3Ni3,mp-1078524
0.0,-0.25200983743749994,Na1Zn4As3,mp-1078703
0.0,-0.5513548360000001,Er2Ni2Ge6,mp-1078854
0.0,-1.0284566399045716,V6P2N2,mp-1079048
0.0,-0.5136738630000004,Er3Sn7,mp-1079090
0.0,-2.0463826340625006,Sm2As2Ru2O2,mp-1079308
0.0,-0.6129462022222216,Ce3Hg3Pd3,mp-1079310
0.0,-0.4129259272222221,Yb3Cd3Pb3,mp-1080127
0.0,-0.7393966188888881,Gd3In3Au3,mp-1080496
0.5004,-0.29638180055357166,K1Zn4P3,mp-1087504
0.0,-0.9661721070833336,Tb2In2Pt4,mp-1092248
0.0,-0.6690479448809512,Ta4Cr4P4,mp-1095419
0.0,-0.26690547555555594,Eu2In8Cu2,mp-1095660
1.9922,-1.5769084949999999,Co4As8O16,mp-1096874
0.0,-0.4231482804166671,Pm2Ga1Ag1,mp-1100765
1.1898999999999997,-1.6242862966666667,Eu4I8,mp-1102093
0.0,-1.0111717313888893,Ti4Si4Pt4,mp-1102195
0.0,-0.6345743650000009,Ho2Ni8As4,mp-1103507
0.0,-0.5847647543333342,Er3Ga9Ru3,mp-1103943
0.0,-0.8313221292857149,Yb6Pd8,mp-1105057
0.0,-0.8861129044999998,Eu4Si10Pt6,mp-1105156
0.0,-0.7102498111764708,Li7Eu4Bi6,mp-1105393
0.0,-0.9927350549999998,Ce4Si4Ir8,mp-1105540
0.0,-0.82903347388889,Zr10Sb6As2,mp-1105693
0.49540000000000006,-0.5799026016904761,Ba4In8P8,mp-1105940
0.0,-0.28857618937500007,Er10Tl6,mp-1105965
0.0,-0.6272505166666669,Ti1Rh3,mp-1152
0.0,-0.16256075000000036,Ga1Sb1,mp-1156
3.6002000000000005,-2.734307292083333,Mg1Sn1B2O6,mp-11715
2.0465000000000004,-2.828540761291667,Na24Ce12O36,mp-1173761
0.0,-0.0014964311750006233,Na6Si34,mp-1180295
0.0,-0.5968103587500009,Ca1Gd1Rh2,mp-1183601
0.0,-0.1923678725000002,Cr1Ga1Ru2,mp-1183688
0.0,-0.6339977650000002,Er2Ru1Au1,mp-1184081
0.0,-0.7989505474999996,Ho2Cu1Pt1,mp-1184717
0.0,-0.27440864250000097,Ho2Co1Ru1,mp-1184724
0.0,-1.136544759375,La1Yb1Pt2,mp-1185013
0.0,-0.39047412291666683,Pm2Ag1Hg1,mp-1186433
0.0,-0.39473277750000024,Pm2Cd1Hg1,mp-1186436
0.0,-0.11821367937499971,Pm1Mg3,mp-1186603
0.0,-0.41119929666666666,Yb1Ag1Hg2,mp-1187942
0.0,-0.5941356575000007,Y10Pb6,mp-1188292
0.0,-0.7383367544999999,Pr4Ge10Ir6,mp-1188518
0.0,-0.9131948187499992,Ho4Ge4Pd8,mp-1189077
0.0,-0.7920232632500003,La14Pt6,mp-1189501
0.0,-0.403343481666667,Al12Fe8Si4,mp-1190708
0.0,-0.6852999741666661,Tb11In9Pd4,mp-1192444
4.8088,-3.3465025186229997,Na5Er4Si4O16F1,mp-1192584
0.0,-0.6317908540000009,Ta8Co8Si14,mp-1192706
0.0,-0.5159101006971412,Ta12Cr12N4,mp-1193113
0.0,-0.35116578517241337,Zr6Al7Cu16,mp-1193200
0.0,-0.8484276456730763,Mn2Nb8Se16,mp-1193575
0.0,-0.19742089214285688,Ho2Be26,mp-1193889
4.528,-2.472182051621667,Na16Lu4C12O36F4,mp-1194756
0.9802,-2.311264303789063,Gd8Hf4S20,mp-1195809
0.23649999999999993,-2.464541551945951,Cs4Fe4Ag4F24,mp-1196464
0.0,-0.12939341913043487,Ca2Al40Cr4,mp-1196837
3.0197,-2.1038569950290706,Ba24Te40Br8O100,mp-1197646
1.7309999999999999,-0.44233406897321476,Cu4P16S12Br4,mp-1197804
1.1516000000000002,-1.2778621703040003,Ta8Te32Cl32O8,mp-1198418
0.0,-0.8685079287698427,Tb5P12Ru19,mp-1198536
1.4386999999999999,-0.03980199093749981,Cd4Sn4P56,mp-1199087
3.1557999999999997,-2.107468502106625,Zn18Te6P12Pb18O84,mp-1199741
0.0,-0.41159914074999976,Y6Co8Ge26,mp-1200302
3.9086999999999996,-2.3616057524658958,Cs8Bi4P4W4O32,mp-1201858
5.344600000000001,-3.1359096118214294,Na4Ho4P8O28,mp-1203462
0.0,-0.26712807160377394,Sm12Al86Cr8,mp-1203633
3.1513999999999998,-1.5508344738184614,Sm8N24O72,mp-1203930
0.0,-0.4198114354166667,Ti12Mn12Ge24,mp-1204392
0.0,-0.6128014057499996,Tm2Si2Ru4C2,mp-1205703
0.0,-0.5227933697500007,Y2Fe4Si2C2,mp-1206116
0.0,-0.35208929555555574,Sc2In4,mp-1206268
0.0,-0.36756741866666615,Eu1Ag2Ge2,mp-1206337
0.0,-0.22728965750000008,Ni1Sn2Au1,mp-1206638
0.0,-0.3764239079999996,Ba1Zn2Ge2,mp-1206924
0.0,-1.0730293189759998,Sm3Sn1N1,mp-1206990
0.0,-0.3275655095597482,Tm12Ti8Al86,mp-1208191
0.0,-0.27469563933333346,Sn12Rh3,mp-1208852
1.0448000000000004,-1.3278784495738643,Sc4Tl2Cu6S10,mp-1209018
5.591600000000001,-2.852855534434794,Rb2Sr1P4O12,mp-1209338
0.0,-1.0788990315,Pr4Os1I5,mp-1209378
0.0,-0.6774469337218048,Pr4Ni24P10,mp-1209747
0.0,-0.5981793124999998,Nb4Fe4Si4,mp-1209887
1.8198000000000003,-2.3575692082499993,Nb4Fe8O18,mp-1210013
2.5707,-1.9154871824305557,Li15I3O18,mp-1211142
0.0,-0.8978513214999998,K2La2Cu2Te8,mp-1211368
1.4127,-0.26004963435714246,K4Si12As12,mp-1211981
0.15580000000000016,-1.841734438875,K8Ce4Br20,mp-1212039
0.0,-0.3507943857692301,Ho2Al20Fe4,mp-1212162
0.0,-0.21695151999999998,Er12In3Fe2,mp-1212895
0.0,-0.20658247499999996,Dy16Mg4Ni4,mp-1212902
0.0,-0.3244409826415089,Er12Nb8Al86,mp-1213435
0.0,-0.6701545528571425,Gd4Ga18Ir6,mp-1213497
1.3355000000000001,-2.0786607029166677,Ba4Fe8Pb4O20,mp-1215009
0.0,-0.32443914333333385,Zr2V1Co3,mp-1215478
0.0,-0.5229351449999999,Zr2Ga3Cu1,mp-1215639
0.0,-0.6013217155555554,Ti4Co6Si2,mp-1217162
0.0,-1.0393166774999996,Tb4Cu1Pt3,mp-1217627
0.0,-0.49540956833333283,Ta4Co6Si2,mp-1217775