band_gap,formation_energy_per_atom,full_formula,task_id
2.6094999999999997,-3.0456300241725964,Rb2Ti4P6O24,mp-6125
0.22609999999999975,-1.5571136001562502,Li2Eu1Ge1S4,mp-629443
0.9728000000000003,-0.4805942114705881,Ca2Ga12Te20,mp-675750
0.0,-0.7142239047222224,Ce20Ir16,mp-680536
0.0,-0.694129970016447,Nb56S20,mp-683941
4.9298,-3.266577450230769,K2Al2Si6O16,mp-697670
2.3358999999999996,-2.174434214617458,Rb1Dy1S2,mp-7046
1.3659000000000001,-0.8296045916964289,Li20Sn2P4Se24,mp-721252
0.0,-0.15574907307692326,Nb6Co7,mp-7250
5.459199999999999,-1.8413070667137499,Al8H80S8O72F8,mp-730446
0.8978999999999995,-2.7700770798076926,Yb4V16O32,mp-735715
2.2077999999999998,-3.1895143134225012,Nb2O4F2,mp-752467
2.2457000000000003,-3.401122567040001,Ta3O7F1,mp-753747
0.0,-1.9033034258925001,Ru2F6,mp-7570
0.0,-1.9346875791452633,K2Mn12O24,mp-757832
1.2578000000000005,-1.654604094806202,Ti4Ni15O24,mp-766093
1.1539000000000001,-3.004987959285714,Sr4Nb8O16,mp-768342
3.9474000000000005,-3.4234209207812505,Tm8Ge4O20,mp-770409
2.7662,-2.144648986346154,Li6Te1O6,mp-7941
0.16790000000000038,-3.4112489934126993,Ce3P3O12,mp-8382
3.5102,-3.1326647943055557,K2Na2Nd2Ta2O10,mp-861607
2.9376999999999995,-1.8637981673928579,K2La2Si2S8,mp-861938
0.0,-0.6521240500000003,Al2Co1Ru1,mp-862695
0.0,-0.3370843568750006,Pm3Ge1,mp-862731
0.0,-0.31572340499999996,Tb1Mg1Cd2,mp-862767
0.0,-0.33849647687500006,Li1Pm1Tl2,mp-862928
0.0,-0.4851125762500006,Pm2Ni1Rh1,mp-863714
0.0,-0.3564688842499999,Na1Sm1Hg2,mp-865108
0.0,-0.3888718099999995,Tm1Nb1Ru2,mp-865248
0.0,-0.25139881249999974,Tm2Mg1Al1,mp-865356
0.0,-0.3662557887500011,V1Ge1Ru2,mp-865585
0.0,-0.27420651166666765,Ti1Mn2V1,mp-865678
0.0,-0.7005558862499996,Yb1Bi1Pd2,mp-865736
0.0,-0.5969023499999997,Tm1Rh2Pb1,mp-865787
0.0,-0.6019541250000007,Lu1Rh3,mp-865802
0.0,-0.24782600083333328,Sc1Cd1Ag2,mp-867127
0.0,-0.33062780812500003,Sm1Mg1Cd2,mp-867131
0.0,-0.5451774212499996,Tb2Ga6,mp-867246
0.0,-0.18703518875000036,Eu6Tl2,mp-867318
0.0,-0.7194240775000003,Dy1Mg1Rh2,mp-867831
3.5354,-1.8831814737083334,K4Te2O6,mp-8724
0.0,-0.3386400463760001,Ba6Na2N2,mp-8868
0.0,-0.16404213749999985,Ba1Zn1,mp-902
1.1379000000000001,-0.26422545624999927,Ta1Cu3Te4,mp-9295
0.0,-0.805611965892858,Co6S8,mp-943
0.10990000000000011,-0.4228126402000008,K4Ni2As4,mp-9673
0.0,-0.5750469502777773,Sm3Si3Ag3,mp-972524
3.2655999999999996,-2.97773493125,Lu2I2O2,mp-973585
0.0,-0.3587246225000005,Li1Lu2Ru1,mp-977393
0.0,-0.5996776798611118,Tm4B16Os4,mp-982777
1.1209000000000007,-2.6890548702499997,La2Zn1Co1O6,mvc-14594
0.0,-3.4813280352675005,Ca1V1F6,mvc-15849
0.0,-0.05980718235294112,Hf2Zn32,mp-1016106
0.0,-0.994781652476,Dy3Al1N1,mp-1017557
0.0,-2.1539461160416677,Ce2S4,mp-1018663
0.0,-0.35582666499999976,Gd2Cu2Pb2,mp-1018705
0.0,-0.4199178327777779,Ho2Zn2In2,mp-1018729
0.0,-0.8331630774999995,Nd2Ge2Au2,mp-1018826
2.5737000000000005,-1.5085139911994743,Sr8Li4Si8N16O2,mp-1020592
5.1275,-2.332893685520456,Rb12B4S12O48,mp-1020716
0.0,-0.6413010433928577,Sm2Fe2Si2C1,mp-1025262
0.0,-0.64715203,Lu2Ga4Ni2,mp-1025552
2.2611,-1.5481218181691663,Ca16Ti16N32,mp-1029572
0.0,-0.9448030830000007,Ho4Ge4Rh2,mp-10308
2.4372999999999996,-0.4149407328299999,Na8Re2N6,mp-10419
1.6014999999999997,-1.7078292701562505,Y4Cu4S8,mp-10533
0.0,-0.28714793750000034,Eu1Tl3,mp-1064843
0.0,-0.28668834372400054,Tl1H1Pd3,mp-1068746
0.0,-2.9982409844999998,Er2Bi1O2,mp-1069613
0.0,-0.2913748460000001,Ba1Zn2Si2,mp-1070267
0.0,-0.6861539780555539,Ho1B2Ir3,mp-1072182
0.0,-0.6704287038888879,Gd1B2Ir3,mp-1077270
0.0,-0.36740343333333375,Ho1Cd1Ni4,mp-1077332
0.0,-0.658173154444444,Sc3Cu3Ge3,mp-1078430
0.0,-0.7497717366666667,Yb2In4Pt2,mp-1078504
0.0,-0.7164239909999999,Tb2Al4Au4,mp-1078833
0.0,-0.2554091287500002,Mn3Pd5,mp-1078895
0.0,-0.4893081012500007,Zr2Ga6,mp-1080001
0.0,-0.6991081424999992,Al2Pt6,mp-1080448
0.0,-0.6132564684374993,La1Al5Ni2,mp-1080524
0.5383,-0.37061278848275875,Cs4Bi4Pd2,mp-1080693
3.8183000000000002,-1.6816115641666667,Sr1Ca1I4,mp-1101340
0.0,-0.9316076558333334,Y8Pt4,mp-1102657
0.0,-1.1282851873809523,Pr4Ni4P4,mp-1102807
0.0,-1.2083193157142855,Lu4Ni4P4,mp-1103289
0.0,-1.0993794758333333,Sm4Al4Pt4,mp-1103450
0.0,-0.7938049392857148,Pr6Pd8,mp-1104184
0.0,-0.3286173346428569,Sm2Ga12,mp-1104451
0.0,-0.45139177535714176,Sm2Re8Si4,mp-1104658
0.0,-0.4641371800000006,Gd2Re8Si4,mp-1105253
0.0,-0.4147349861562503,Rh8Se12,mp-1105666
0.0,-0.5303298272500001,La14Pd6,mp-1105925
0.0,-0.7407107009999997,Dy4Sn10Rh6,mp-1106269
1.2382999999999997,-1.3832748811900002,Sr1Ce1N2,mp-11178
0.0,-0.8976020299999998,Lu1Au1,mp-11249
0.0,-0.8743587974999993,Ho1Ir1,mp-11476
0.0,-0.17519907249999989,Lu1Pb3,mp-11494
0.0,-0.3375249633333344,Ta1Ni2,mp-1157
0.0,-0.7157016216666661,Sc6Te2Os1,mp-11754
1.7847,-1.6421102614537615,Cs12Br8O2,mp-1178399
0.0,-0.6257396137499995,Zr1Zn1Ir2,mp-1183038
0.0,-0.24317251499999992,Ba2Mg1Tl1,mp-1183219
0.0,-0.6854100924999997,Er1Cd1Au2,mp-1184163
0.0,-1.7689823921637549,Cs8Sb4Cl24,mp-1184201
0.0,-0.4036840450000003,La1Sm1Tl2,mp-1185038
0.0,-0.5979968287499995,Li1Sn1Pt2,mp-1185434
0.0,-1.1260989349999995,Lu1Te1,mp-1185504
0.0,-0.47716338999999985,Mg1Hg1Pd2,mp-1185884
0.0,-0.5851902524999986,Nb2Ir6,mp-1186231
0.0,-0.37716309000000026,Pm2Mg1Ge1,mp-1186475
0.0,-0.3295181450000002,Y1Tm1Tl2,mp-1187870
0.0,-0.9761297320000004,Ce4Si10Rh6,mp-1188214
0.0,-0.6663920279629636,Zr10Sn6B2,mp-1188408
0.0,-0.3088075324999995,Er4W4C8,mp-1188587
0.0,-0.4315879993333326,Mg4Mn2B4Ir10,mp-1189623
0.0,-0.6774322518750004,Pr10Sn6,mp-1189687
0.0,-0.2326900143749988,Y4Mo4C8,mp-1189984
0.0,-0.7720670326190473,Ce2Co12P7,mp-1191328
0.0,-0.5374181378571437,Dy2Ni12As7,mp-1191758
3.5787999999999998,-2.520250604214285,Na4Ca4As4O16,mp-1193109
0.0,-0.3392851231034483,Yb2Ni21B6,mp-1193375
0.0,-0.5467192196551721,Hf6Al16Co7,mp-1193847
0.0,-0.5659780076666673,Ta8Fe8Si14,mp-1193899
1.9453,-2.582297523571429,Er4Mo4Br4O16,mp-1194158
0.0,-0.6071791094827584,Sc6Al16Os7,mp-1194206
4.2761,-2.229542608003233,Rb4Y4Se8O24,mp-1195500
4.7998,-3.6726960505092596,Ba2Er8Si10O34,mp-1195598
0.0,-2.4899886093074324,Pr4Er11S22,mp-1196484
0.0,-0.27609581132075495,Sm12Al86W8,mp-1197029
0.0,-0.5499657110000001,Pr8Re12Si20,mp-1198710
0.0,-0.4482934133435949,Cs6Te26Mo24,mp-1198887
0.0,-0.6076458502777776,Tb8Re4B24,mp-1198929
4.6498,-2.595167056301952,Cs4Ga4B4P8H4O36,mp-1201408
0.0,-0.730664460833333,Tb8Nb12Ge16,mp-1202127
1.1897,-0.28684736863003407,Cs12Ge36H24N8,mp-1204552
0.0,-2.3573441182000003,Na1Sr2Os1O6,mp-1205676
0.0,-2.3149354472500008,Ba2Zn1Os1O6,mp-1205691
0.0,-0.6349693944444448,Pr3Cd3Au3,mp-1205879
0.0,-0.7095893883333334,Pr2Si2Ni2,mp-1206335
0.0,-0.5221869207499992,Er2Mn4Si2C2,mp-1206340
0.0,-0.31159523199999983,Er4Cd2Cu4,mp-1206454
0.0,-0.4962993144444441,Lu3In3Ni3,mp-1206494
0.0,-0.5687299784166662,Lu3In1C1,mp-1206516
0.0,-0.9700825373809513,Eu1Ni1P1,mp-1206697
0.0,-0.6048688560416666,Nd2In4Rh2,mp-1206811
0.0,-0.02702433769230831,Zn18Fe8,mp-1207450
0.0,-0.4831159166666663,Yb4Ga8Ag4,mp-1207558
0.0,-0.4503452986666673,Tm1Fe2B2,mp-12076
0.0,-0.29186571648148174,Tm12In2Co4,mp-1208240
0.0,-0.8292623771428568,Sm4Al18Rh6,mp-1208905
0.0,-3.020248071268973,Rb2Ti6Si4P12O50,mp-1209312
3.3516999999999997,-2.033752825068965,Rb4Li6Ga2O8,mp-1209478
0.03610000000000024,-3.8931536550174712,Rb4Ce4F16,mp-1209496
0.0,-1.45818643903125,Na1Tb1Pd6O8,mp-1209956
2.4351000000000003,-3.345841301120909,Na4Mg2V2F14,mp-1210449
0.8315999999999999,-1.5318883689714287,K8Zr6Be1Br20,mp-1211836
0.0,-0.8118955220689646,Hf6Al16Ir7,mp-1212464
2.6738,-1.9813159490033332,Ga4Cl4O4,mp-1212662
0.0,-0.525872976666666,Dy16Cd4Ir4,mp-1212892
0.0,-0.8309781372413787,Dy3Si6Pd20,mp-1213199
0.0,-0.2426603963157905,Gd12Co6Pb1,mp-1213266
0.0,-0.47250101222222285,Er10Cu2Pb6,mp-1213285
1.318,-1.1556943243733417,Cs2La2Ta12Br36,mp-1213395
0.0,-0.7189715180295567,Gd3P6Pd20,mp-1213489
0.0,-0.6926889199999989,Ce8Ge6,mp-1213824
0.34450000000000003,-2.603625329139611,Ca4P8Pd4O28,mp-1214043
0.0,-2.2093139164583335,Ba2Pr1Cu3O6,mp-1214585
0.0,-0.6745823553333331,Ba1In2Pt2,mp-1214750
0.0,-0.3383207947499997,Al28Cu8Ru4,mp-1214866
0.0,-0.47072891444444465,Zr3Sn4Sb2,mp-1215570
0.0,-0.7147919660937496,Yb20Cd3Au9,mp-1215969
0.0,-0.8888994472222222,Ti1Nb1B4,mp-1216692
0.0,-0.38453134000000055,Tm2In1Ag1,mp-1216746
0.0,-0.47354510354166646,Ti10Ga3Sb3,mp-1217250
0.0,-0.08651648083333423,Tb1Ho1Fe4,mp-1217473
2.3933999999999997,-2.9340484668500006,Sr10Mg5Mo4W1O30,mp-1218905
0.0,-0.7282790036309529,Sc5P12Ir19,mp-1219419
0.0,-0.5223896718055564,Nd3Ga6Ni9,mp-1220258
0.0,-0.024677589999999583,Nb1W1,mp-1220316
0.0,-0.8198098783333337,Nd2Ge3Pd1,mp-1220340
0.0,-1.562305711670455,Na4Ta6S12,mp-1221434
0.0,-0.6347418319999998,Mg4Sn6Pt5,mp-1222154
0.0,-1.5845214850340918,K4Ta6S12,mp-1223710
0.0,-0.4259008783333324,Hf2Ga3Cu1,mp-1223908
0.0,-0.18827737833333322,Ho2Fe2Co2,mp-1223978
0.0,-0.1334008924999992,Fe1Ni1Pt6,mp-1224947
1.9859999999999998,-3.0746021351136363,Er4Cr2Sb2O14,mp-1225159
5.089499999999999,-3.1827364875940996,Cs2Al2Ni2F12,mp-1225930
0.0,-0.4215634062499998,Ca1Sm1Al4,mp-1227030
0.0,-1.0251889468518525,Ca32Sb22,mp-1227708
3.9027000000000003,-1.8189452974474998,Ba1Al1Si5N7O2,mp-1227994
0.0,-0.381442584999999,Al20Fe4Ni4,mp-1228374
0.0,-3.1134891614948272,Cs12Eu4Si24O60,mp-1229260
1.9606999999999999,-2.0481196192968754,Ba1Se1,mp-1253
0.0,-0.42950104900000036,Na4Li2Au6,mp-12815
0.0,-0.9770359998809527,Sr4P4Ir4,mp-12923
0.0,-0.6004870024999995,Sm1Si2Au2,mp-13466
0.0,-0.45216737277777796,Tb3Zn3Ni3,mp-13536
0.0,0.0,Tm2,mp-143
0.0,-0.5878384437878789,Y6Fe2B14,mp-14542
0.0,-0.8407188399999995,Ba4Si8Ir8,mp-14561
0.0,-2.153193492038544,Cs2Cu4F12,mp-14581
2.6338,-1.417183397541308,Cs4Ta2Ag2S8,mp-15218
0.32699999999999996,-0.4853655223214283,Sc8C6,mp-15661
0.0,-0.9392315758928577,Cr4Hg2S8,mp-15973
0.0,-2.2835407995312504,Er1S1,mp-1623
0.0,-2.8610426757884615,K18Yb6Si12O42,mp-16599
0.0,-0.8820854527777782,Pr3Mg3Pt3,mp-16644
0.0,-0.9394941229166657,Tb8Si12Rh4,mp-17036
4.919499999999999,-2.991952852913265,K6Nd2P4O16,mp-17187
3.2138999999999998,-2.4368806262250002,Na2Mg8As6O24,mp-17771
4.4902999999999995,-3.361309429453126,Sr6Y1Sc1B6O18,mp-18043
2.8228,-2.6906306341666673,Sr4V8O24,mp-19038
0.0,-0.8600538450000004,Y1Rh1,mp-191
3.3063000000000002,-2.3805511201232976,Na6Mn2P2C2O14,mp-19261
2.2616999999999994,-2.9531188747500012,Ba2Ca1Mo1O6,mp-19403
0.8674,-0.41157568499999986,Te1Pb1,mp-19717
0.0,-0.6196132864999996,La1Co1Ge3,mp-19973
0.0,-0.5428365024166666,Ti3In1C1,mp-20325
0.0,-0.6252337566666663,Nd4Ni4Sn4,mp-20490
0.0,-0.37104420187500065,Nd1Pb3,mp-20601
0.0,-0.7289449760714293,Nb4Ni4P8,mp-20948
0.0,-0.33191936333333355,Gd1Cd2,mp-20965
0.0,-1.2372724040473329,Ce3Ni2B2N3,mp-21136
0.0,-0.2936834350000006,Tb1Pb3,mp-21156
0.0,-0.2252796349999997,Mn1Ga1Co2,mp-21171
0.0,-0.22511215250000038,Mn2V1Ga1,mp-21235
0.0,-0.2344044529999998,Sn8Pd2,mp-2128
0.0,-0.7686393046666673,La4In2Ge4,mp-21288
1.9923999999999995,-3.214681771805557,Ba4Er8Co4O20,mp-21317
0.026499999999998636,-0.2826297086206907,Ni21Sn2B6,mp-21573
0.0,-0.44743161489795824,Ca2Cu8P4,mp-22295
0.028200000000000003,-0.7015559594444447,Eu4In4Pd4,mp-22322
0.0,-0.17902842333333288,Tb2Co4,mp-2265
1.8674000000000002,-0.9115588338300492,Cs6Sb4I18,mp-23029
1.3066,-1.2814298249014777,Cs6Cr4Br18,mp-23451
2.7990999999999997,-1.707633785774866,Cs2Te1Cl6,mp-23465
2.3761999999999994,-0.9053653773384741,K4Bi4P8S28,mp-23572
0.0,-0.6841151024999998,Ta1Ir3,mp-265
0.0,-0.4674636116666668,Sb8Rh4,mp-2682
0.0,-0.08460440983333346,Na2Al2Si2,mp-27335
0.0,-1.8354661942854547,As16S64F96,mp-27578
2.3358999999999996,-1.4989948353952383,Ta2P2Cl20,mp-27788
1.6975,-1.761800596306818,Fe8As10O26,mp-28519
0.49560000000000004,-0.2829009816666665,Ta2Te8I2,mp-28691
0.0,-1.1550895150000002,Y6Ir2I6,mp-28748
0.0,-1.3006848798437511,La2Pd6S8,mp-2889
0.0,-0.6654724912244906,Ba1P4Pd2,mp-28895
0.0,-0.43201880782051316,Ga32B4Ir16,mp-28924
0.13569999999999993,-2.799887454206896,Na2Nb20O36,mp-29162
1.1864000000000001,-1.5783370606485714,Na8Pd4Cl16,mp-29359
0.24520000000000053,-0.22273879133333332,K4Al4Sb16,mp-29373
0.0,-1.1855829417525001,La2C1Cl1,mp-29404
0.0,-2.9285533756410267,Ca22Re8O48,mp-29532
3.3159,-1.2722279282413793,Cs2Mg2I6,mp-29751
1.3341000000000003,-1.7005907905343762,Na16Se4O20,mp-29871
0.0,-0.21954366275862028,Zr6Co23,mp-30569
0.0,-0.1902011234615385,Zn22Ir4,mp-30747
0.0,-0.4296953270000003,Sr1Ni1Sn3,mp-30805
0.0,-1.0984561720000001,Lu1Si2Rh2,mp-3108
0.0,-0.7214875599999999,Er4Fe2Si4,mp-31095
3.8831000000000007,-3.9724021497499997,La4Sc4O12,mp-31116
0.0,-0.37160274833333357,Ba2Zn2Si2,mp-31147
0.0,-0.9125396324999997,Ca4Ge4Pt4,mp-31153
0.0,-3.2096475700510205,Ba9Nb10O30,mp-33581
0.0,-0.6191431196000003,K1As2Rh2,mp-34232
0.0,-0.7953006869999996,Sc1Si2Ni2,mp-3587
0.0,-0.5968093125000005,Zr1Al1Ni2,mp-3944
0.0,-0.24899301500000037,Zn2Ni2,mp-429
0.2392000000000003,-2.4118967527083335,Sr2Pd1O3,mp-4359
0.0,-0.8582045320000006,Tb1Si2Ni2,mp-4466
0.0,-0.9793516883333334,Ca4Si4Pt4,mp-4478
0.0,-0.667428858000001,Eu1Si2Ni2,mp-4768
0.0,-2.2996898249999993,Cu6B12O24,mp-4870
0.0,-0.7738188046874992,Hf4Sn2C2,mp-4893
0.0,-0.43784660300000056,Sr2Cu4Sb4,mp-505515
0.0,-2.7427222175,Ba1Nb4O6,mp-505517
0.0,-0.7890917664814813,Ti20Si16,mp-505527
0.036499999999999755,-2.7558161629545452,Sr6Eu2Rh2O12,mp-505615
3.6944000000000004,-2.4677118941396117,Fe4P4O14,mp-510367
1.4057,-1.5659246066200005,Al8Te8Cl28,mp-540629
0.0,-0.16142029800000018,Cr2Ge2Te6,mp-541449
2.2392999999999996,-2.4102223859285723,Sb8P16O56,mp-541668
0.0,-0.2693277662299991,Mo12Pd8N4,mp-542154
3.5103000000000004,-3.25761969304889,Pr8Sb4O20F4,mp-554138
2.6129000000000002,-2.5412631844426405,Cr12P12O42,mp-554453
0.0,-3.5886579123830002,K4Zr4V4F28,mp-554835
1.2497000000000003,-1.7164312921785714,Na8Zn8O12,mp-554845
3.6064999999999996,-1.7962101079791666,Ga8Mo4Se8O40,mp-554901
4.507000000000001,-3.184649632789999,Na12Dy4Si24O60,mp-555604
2.7326,-2.750110069751428,Dy2Mo2Cl2O8,mp-555683
2.1741,-3.05127097138889,La4Cr2O12,mp-556104
0.0,-1.4266606749375002,Nb6Sn2S12,mp-557640
0.0,-0.8594252379999994,Ce1Ge2Rh2,mp-5577
0.0019999999999997797,-1.889764834453126,Ce6Cu2Si2S14,mp-558375
4.750900000000001,-3.0466385335925397,Na16Ca8P8O32F8,mp-559376
1.7825999999999997,-1.8083270761979169,V8Cd16Te12O60,mp-559685
5.4349,-3.002664741587301,Ba4P8O24,mp-559939
3.8805,-3.6202221772561907,Ca12Ta16O48F8,mp-560378
0.9891000000000001,-2.3324177706250007,Gd1Bi2Br1O4,mp-562809
2.7775000000000003,-2.3895972669015255,Rb4Nb4S8O36,mp-562977
0.0,-0.8209740379166668,Ti6Si2C4,mp-5659
0.0,-0.4885327349999997,Ca1Ge2,mp-567456
0.0,-0.5921127003124997,Nd10Si6,mp-567735
0.0,-0.8759339034375007,Pr4C2Br2,mp-568066
0.0,-2.181559385039899,Cs8Sc12C2Cl26,mp-568135
3.8548999999999998,-0.7243522677923219,Rb1La1Si1C4N8,mp-568228
0.0,-0.29239309437499994,Bi4Pd8Pb4,mp-568476
0.0,-0.6838599219999999,Pr4Ni4I2,mp-568506
0.0,-0.45930344370370396,Mg10B16Ir19,mp-568548
0.5969000000000002,-1.154674706923077,Ca56Ga4As44,mp-568790
0.0,-0.6368813162500002,Dy2Al4Ni2,mp-569385
0.0,-0.4559652611904764,Sb12Pd30,mp-569451
0.0,-0.4897959903205126,Zn49Pt29,mp-569514
0.0,-0.8805266109999998,Ho1Ge2Rh2,mp-569650
0.0,-0.3307977798000002,Ce32Ru18,mp-570369
2.4273,-1.3383012066116073,Nb2P4N2Cl24,mp-570531
0.0,-0.414163446646666,Mo12Pt8N4,mp-570666
0.0,-0.49453875333333347,Hf4Al6C8,mp-570784
0.0,-0.14779788666666663,Tl4Pd2,mp-570896
0.0,-0.40355180750000014,Sr22Al8Sn6,mp-571154
0.0,-0.6177956859999995,Sr1Co2As2,mp-571203
0.0,-1.2398474556428571,La24C12I34,mp-571323
2.6254999999999997,-2.1333769778750002,Ba8Cr16O56,mp-572430
1.6057000000000001,-1.1973224706666667,K4Sn2Br12,mp-574040
0.0,-0.2973366336206899,Nb6Co16Ge7,mp-580140
0.0019999999999997797,-2.088689552783334,Ce12C4Cl20,mp-580802
0.9008000000000003,-0.6398789874791664,K16Hf12Te68,mp-581963
0.0,-0.7337110320000001,Eu1Mg2Sb2,mp-582736
0.0,-2.7700284283791206,Yb8P24O72,mp-583593
5.939399999999999,-3.5433378145238095,Tm2P2O8,mp-5884
0.0,-0.21012256846153796,Al16Cu36,mp-593
0.0,-0.28099245677083307,Zr8In20Ni4,mp-602268
0.0,-0.6413629213888884,Ti8As16,mp-604647
0.0,-0.6313659799999994,Pr8Zn8Rh8,mp-607715
2.8355,-3.098556828508065,Ba2Ta6Te2O21,mp-6238
0.0,-0.15298453374999976,In12Ir4,mp-630976
0.0,-0.39053070333333356,Y2Pb4,mp-636614
4.4106,-2.33638284029188,Cs4S4O8F4,mp-6368
0.0,-0.3328624552678566,Mn8Ge4Se16,mp-640047
1.0657000000000005,-1.4704895457499996,Co18Te6O36,mp-645717
1.2227,-0.25638372839285717,P4Br28,mp-647343
3.9452,-2.850600271,Na4Zn2Si6O16,mp-6481
0.0,-2.838692802656251,Eu8Ge4O20,mp-648448
0.0,-0.37967612137254875,Sr4B16Ru14,mp-649084
0.0,-2.5016100269440003,Ce24N8Cl48,mp-667362
0.0,-0.6616829649999996,Zr6Co16Si7,mp-672680
2.4589999999999996,-2.4870117622243586,K2Ba12Zn8Ga14O42,mp-677520
0.0,-2.050754635333334,Ba2Y1Cu4O8,mp-6790
0.0,-0.1447547285000006,Bi4Pt4Pb12,mp-680530
3.6243999999999996,-1.5387704978655112,Rb4H4Se4O16,mp-696794
1.4666000000000001,-1.1385698457112072,Rb2Au2O4,mp-7472
2.0854999999999997,-2.61047776127898,Li4V2P4H2O16,mp-754990
1.5483000000000002,-1.517330620297414,Rb40Fe8O32,mp-768830
0.45650000000000013,-1.08059789893319,Rb2Mo6S6,mp-8117
0.0,-0.70021074875,Sc2Os1Pd1,mp-862365
0.0,-0.034207727499999674,Li1Cu3,mp-862658
0.0,-0.4111383525000001,Pm2Zn1Pb1,mp-862727
0.0,-0.3086286102083333,Pm1Al1Ag2,mp-862837
0.0,-0.46166690062500004,Li2Pm1Sn1,mp-862935
0.47429999999999994,-0.8603348337499996,Ba2Bi1Au1,mp-862947
0.0,-0.4668936031250004,Pm1Sn3,mp-862960
0.0,-0.5410077216666664,Er2Mg2Sn2,mp-862993
0.0,-0.47408626416666655,Ca2Ag1Pb1,mp-864991
0.0,-0.8920504625000003,Tm1Ga1Rh2,mp-865195
0.0,-0.21535982374999918,Tm2Co1Os1,mp-865303
0.0,-0.7681061174999995,Lu2Ni1Ir1,mp-865337
0.0,-0.16239059250000132,V2Cr1Fe1,mp-865490
0.0,-0.3462750141666664,Y1Ag1Hg2,mp-865502
0.0,-0.3672859966666664,Yb1In1Ag2,mp-865789
0.0,-0.36836689020833324,Yb1Pm1Ag2,mp-865896
0.0,-0.6120305199999998,Yb2Cd1Sn1,mp-865918
0.0,-0.4198289687500001,Ca1Mg1Hg2,mp-867144
0.0,-0.73714804875,Dy1Cd1Pd2,mp-867276
0.0,-0.5519325549999996,Li1Tb2Ir1,mp-867285
0.0,-0.307702410000001,Ta1Ga1Os2,mp-867788
0.0,-0.6287691837499985,Sc1Mn1Rh2,mp-867850
0.0,-2.1703385534114594,La6Al2V2S14,mp-867967
0.0,-0.3611894183333331,Ta2Ni4Te6,mp-9391
0.0,-0.03228808045199969,Zn24N16,mp-9460
0.0,-0.5912297231060613,Tb6Re2B14,mp-972380
0.0,-0.17664378857142843,Sc2Be26,mp-972891
0.0,-0.41947744500000184,Hf1Zr1Tc2,mp-974943
0.0,-0.3356626000000003,Mg1Pd5,mp-976976
0.0,-0.7284505462499999,Tb1Cd1Pd2,mp-977397
0.0,-0.5529249374999985,Hf2Mn1Rh1,mp-977572
2.8375000000000004,-2.990030794877551,K6Gd2P4O16,mp-978099
0.0,-0.4661171974480002,Sr1Ga2H2,mp-978854
0.0,-2.3451406338,K2Yb2C4O12,mp-9805
4.9784,-2.7722938840606033,Rb1As1F6,mp-9819
0.0,-0.22159901187499997,Pm1Dy1Ru2,mp-983429
0.0,-0.5331488251190475,Pr2P10,mp-9848
0.0,-1.6142668029218745,Na1Ce1Se2,mp-999491
0.0,-1.313716109375001,V2S4,mp-1013525
0.0,-0.5230621104715371,Hf48Zn48N8,mp-1016107
0.0,-3.096610782500001,Ba4Eu8O16,mp-1019738
2.9528999999999996,-0.9834345458775005,Ba1C1N2,mp-1029375
0.01499999999999968,-0.8785134228566669,Sr8Re4N12,mp-1029872
0.0,0.0,Hf2,mp-103
0.0,-2.6841504997499994,La4Zn2Rh2O12,mp-10321
2.9255999999999998,-2.755748396545455,Na2Sr6Sb2O12,mp-10461
0.0,-0.5474591570000001,Sc1Au4,mp-1068446
0.0,-0.6577393615000006,La1Si3Os1,mp-1069882
0.0,-0.8635079650000002,Tb2Sc2Sb2,mp-1071036
0.0,-0.6169652291666665,Dy1Si1Ni4,mp-1077126
0.0,-0.5617002155555552,Ti2Si4,mp-1077503
0.0,-1.5522807569642876,Eu4Bi2O1,mp-1078184
0.9790000000000005,-3.041411146999999,Ba2Nd1Mo1O6,mp-1078551
0.060100000000000264,-0.28358399375000065,La2Co2C4,mp-1078624
0.0,-0.18913785499999936,La4Cu4,mp-1078920
0.0,-0.3926325383333342,Pr2In2Ni4,mp-1080775
1.9872999999999998,-1.230842430627143,Na1Sr4B3N6,mp-10811
0.0,-0.5813729854545461,Ho2Ni3B6,mp-1095435
0.0,-0.5077936277272734,Tm4B3C4,mp-1095577
0.0,-0.279640415,Ce2Cu2Pb2,mp-1096897
1.0488999999999997,-0.4491404283333343,Ta1Sn1Rh1,mp-1100408
0.0,-0.6600562824999999,Y4Co4Ge4,mp-1101785
0.0,-0.9016956883333336,Y4Ga4Pd4,mp-1101849
0.0,-0.6817765775000003,Sr4Cd4Pt4,mp-1102073
0.0,-0.6041538241666657,Eu4Mg4Pd4,mp-1102076
0.0,-0.47821146166666634,Sc4Co4Sn4,mp-1102101
0.0,-0.25246437666666566,Er4Re8,mp-1102143