band_gap,formation_energy_per_atom,full_formula,task_id
3.3894,-3.2998219070238095,Mg8Ti4O16,mp-757031
0.0,-1.5240343932222238,Ba6Rh28O56,mp-758025
0.0,-1.370210536574073,Co3Bi6O18,mp-765403
3.8169000000000004,-2.092324540634191,Y8Se12O48,mp-769147
2.9101999999999997,-2.8702996006944455,Ba12Ge4O20,mp-778602
0.0,-0.31347079181250026,Pd8S2,mp-7819
0.0,-0.2683520599999998,Li2Ga2Ge2,mp-7874
0.0,-0.19784934812499966,Li8Si8,mp-795
2.6486,-2.448487985314406,Rb2Pt1F6,mp-8192
0.0,-0.7791995029166667,Ti1Zn1Rh2,mp-861961
0.0,-0.3341677087499999,Ho2Tl1Cd1,mp-861994
0.0,-0.9419372424999999,Li1Al1Pt2,mp-862296
0.0,-0.4419669741666663,Sc2Ag1Ru1,mp-862473
0.0,-0.74386819375,Pm2Ir1Pd1,mp-863716
0.0,-0.3667925900000002,Pm2Tl1Cd1,mp-864629
0.0,-0.3023774338541667,Nd4B2C2,mp-864790
0.0,-0.7494034512500001,Zr1Sn1Rh2,mp-864947
0.0,-0.48404478125000017,Dy2Zn1Ga1,mp-865156
0.0,-0.010160490625001017,Fe6Re2,mp-865212
0.0,-0.3051212437499995,V1Tc2Ge1,mp-865482
0.0,-0.32119380500000183,V2Tc1Ru1,mp-865501
0.0,-0.18757948749999898,Mg1Ta1Os2,mp-866071
0.0,-0.5183269349999993,Lu1Ta1Ru2,mp-866125
0.0,-0.7789658950000002,Y1Mg1Au2,mp-866171
0.0,-0.3443316837499999,Ce1Cd1Hg2,mp-866274
1.8562,-1.005022398464286,K4Ge4Bi4S16,mp-866646
0.0,-0.44281641875000055,Sc1Ga1Ru2,mp-867156
0.0,-0.45083992250000016,Ta1Cu1Rh2,mp-867771
0.0,-0.30977226374999844,Ta2Cr1Os1,mp-867774
0.0,-0.20185453652777774,Sm1Cu4Ag1,mp-867863
0.0,-0.46778773270833307,La1In1Hg2,mp-867979
0.0,-0.2113669919230771,Sc1B12,mp-8772
0.0,-1.1872135308333338,Nd2As2Pd2,mp-8950
0.0,-0.5287659048333332,Na2Te2Au2,mp-9264
0.0,-0.3340043108333326,Dy1Y1Ag2,mp-971924
0.0,-0.2942421171111107,K6Tl2Au10,mp-976190
0.0,-0.3813137004166669,Sm2Ag1Hg1,mp-978545
3.0780000000000003,-1.4578213608660717,Ca4P4S12,mp-9789
0.0,-0.3550597124999997,Tm1Lu1Zn2,mp-980198
0.0,-0.9653912503124991,Sm10Sb6,mp-980757
0.0,-0.2396291118749998,Ce1Pm1Zn2,mp-983559
0.0,-0.8766762957142854,Ba2P2Au2,mp-985439
0.0,-0.5757910789583338,Sc2B8Ir6,mp-10114
0.07879999999999976,-0.9667934144285709,Ca3Bi1P1,mp-1013558
0.0,-0.9647012064760006,Zr6Zn2N2,mp-1014226
0.0,-0.8908503899999994,Lu1Au2,mp-1018152
0.0,-0.8377700891666665,Sm2Ge2Au2,mp-1019101
0.0,-0.5226851383333333,Sr2Zn2Sn2,mp-1019279
5.2185,-2.8618160091086953,Ba2Na2Li6B12O24,mp-1019555
5.643800000000001,-2.1638178446131917,Cs4B4S12O44,mp-1019717
3.4268,-2.1864843778846157,Sr4Ge2S16O56,mp-1020704
0.0,-0.8842108408333331,Y2Ge1Rh3,mp-10214
2.3053,-1.2440583834250005,Na8Zn4S8,mp-1024067
0.0,-0.5665044031632657,Ga1P1Pd5,mp-1025301
0.0,-0.2467566471428577,Cd1As1Pt5,mp-1025311
0.0,-0.6925647669642865,Y2Fe2Si2C1,mp-1025339
0.0,-0.7220222650000006,Tb2Au6,mp-1025478
0.10159999999999991,-3.0076314279758334,Ti1Cu1F6,mp-1025502
0.00010000000000021103,-0.9273924289917241,Cs2V2N4,mp-1029293
0.0,-0.6669466133333337,Sr2Sb4,mp-10636
0.0,-1.26971272875,La1Sb1,mp-1065
0.0,-0.5400076586666671,Ho2In1Ni2,mp-1068024
0.0,-0.7918135579999998,Sr1Ge2Rh2,mp-10697
0.0,-0.3544924291666665,Dy1Cd1Ni4,mp-1071811
0.0,-0.6334623630654771,In1Rh3Pb1S2,mp-1077905
0.0,-0.456543629285714,Ca1Cd2Au4,mp-1078064
0.0,-1.0127138859999996,Ca4Al2Pt4,mp-1078362
0.0,-0.5866095037499992,Zr2Cu2Ge2As2,mp-1078698
0.0,-0.6183306884374993,Hf4Tl2C2,mp-1078712
0.0,-0.6291260749999997,Tm3Ag3Ge3,mp-1078772
0.0,-0.5274561739999996,Sr2Ge2Au6,mp-1078860
0.0,-0.853847111111111,Ho3Sn3Ir3,mp-1079423
0.0,-0.717672222777778,Er3Pd3Pb3,mp-1079880
0.0,-0.6374147738194446,V5Se4,mp-1087497
0.0,-0.6140972691666665,Sr4Cd4Au4,mp-1095513
0.0,-1.2581148185200013,Li2Eu8B6N12,mp-1097959
0.0,-0.9814002216666667,Sc4Si4Pd4,mp-1102080
0.0,-0.718789921666667,Zr4Si4Mo4,mp-1102520
0.15700000000000003,-1.7850888238541671,Y4As4S4,mp-1102959
0.0,-0.0606521760714287,Eu2C12,mp-1103990
0.0,-0.5944037150000006,Sc2Ni8As4,mp-1104526
2.4600000000000004,-2.2322849842857146,Cr4Fe2O8,mp-1104680
0.0,-0.5204267661607146,Ni6Pb4S4,mp-1104854
0.0,-0.8545122738333333,Tb8In2Ge8Rh2,mp-1105260
0.0,-0.594577382333334,Gd4B16,mp-1105563
0.0,-0.6435112500000002,Ce6Bi8Au6,mp-1105587
0.0,-0.5098636706250002,Ca4Cd8Pd4,mp-1105752
0.0,-0.4082885838888891,Lu12Ga2Ni4,mp-1105906
5.117100000000001,-2.5137061009973793,Cs2K1Tm1Cl6,mp-1112689
0.0,-0.3913141524999997,Ca1Sn3,mp-11290
0.0,-0.6602190100000003,Dy3Tl3Pd3,mp-11373
0.0,-0.6457543149999996,Nb1Al1Ru2,mp-11537
1.4367999999999999,-0.8217009943749994,Sn1S2,mp-1170
0.48260000000000014,-2.0714936867109985,Mn28Ge4O48,mp-1172871
4.3603000000000005,-1.460526873837292,K4H12Se8O24,mp-1180593
0.0,-0.3279841264583334,Ca1Pm1Ag2,mp-1183552
0.0,-0.29872036125000045,Er1Tm1Tl2,mp-1184245
0.0,-0.3923286987500001,Eu2Tl1Cd1,mp-1184281
0.0,-0.31374208750000143,Gd2Ni1Ru1,mp-1184370
0.0,-0.3268688962499997,Gd1Er1Ru2,mp-1184790
0.0,-3.2700600142187497,Eu5Nb4O15,mp-1185383
0.0,-0.4344622024999989,Li1Gd2Rh1,mp-1185609
0.0,-0.32593554791666657,Nd2Tl1Ag1,mp-1186256
0.0,-0.401420688125,Nd1Cd1Hg2,mp-1186298
0.0,-0.3152519774999991,Ta3Ir1,mp-1187196
0.0,-0.027187717499999486,Zr6Sc2,mp-1188062
0.0,-0.5060571056666674,Zr8In4Ni8,mp-1188079
0.0,-0.41099899633333337,Mg4Fe2B4Ir10,mp-1188243
0.0,-0.25025922500000064,Zr10Cd2Pb6,mp-1189916
1.6540999999999997,-2.4819933354374997,La4Sc4S12,mp-1190131
0.0,-0.7138532116666657,Tm2Mn12P7,mp-1190589
0.0,-2.7176493257500014,Li2Pr4Ir2O12,mp-11906
0.05090000000000039,-0.641683741515152,Tm6B14W2,mp-1191016
0.0,-0.531094634375,Yb7Ni4Sn13,mp-1191537
0.0,-0.714076758333333,Tb2Fe12P7,mp-1191561
0.0,-0.7032134326190468,Tb2Mn12P7,mp-1191573
3.8089999999999997,-2.676435155416667,Li2Ho2W4O16,mp-1191729
1.1718000000000006,-2.0245277453645834,Sr4Gd4Cu4S12,mp-1192362
0.0,-0.6282245323333332,Sc8Co8Ge14,mp-1192696
0.0,-1.0829491653571424,Ce12Ir4I12,mp-1192762
0.0,-1.3700692885714294,La12Ru4Br12,mp-1192912
0.0,-0.5940731350000011,Pr12Ge8Ru8,mp-1193872
3.3785,-3.4985929833181815,Ba6Na2Gd6Si12O40,mp-1194728
0.0,-0.7786523727500004,Ba14Al8Sb18,mp-1195461
0.0,-0.8929785524999998,Nd6Si22Pt46,mp-1196005
0.0,-0.7685206400000002,Pr8As16Au8,mp-1196164
0.0,-0.4448151637499997,Sr6Sn26Ir8,mp-1196422
1.2272999999999996,-2.2836640491015636,Y8Zr4S20,mp-1197050
0.0,-0.5419239512500003,Tm12Ni12Sn24,mp-1197522
0.0,-0.2704621815789475,Li30Pd8,mp-1197547
0.0,-0.8695678625000003,Tm20Ir12,mp-1198195
0.0,-0.34997992416666673,Sm3Mg3Tl3,mp-11987
3.9707999999999997,-3.309482666902175,K4Na4Sm8Ta4O26,mp-1198935
2.3209999999999997,-0.8706699053561544,Hg12H4N8O28,mp-1199625
0.0,-0.5172267797142857,Ce4In21Pd10,mp-1199723
1.3843999999999999,-1.0714808556744806,Rb8P4H16Se12O8,mp-1199971
0.0,-0.7742309515476182,Nd4Co20P12,mp-1200320
2.7862,-2.1651401449149654,B4P4Pb16O32,mp-1201606
3.6461,-2.2385638222527473,Ni4P8Pb8O32,mp-1202326
0.0,-0.34427054587499983,La6Rh8Pb26,mp-1203228
0.0,-0.15520290445652216,Sm2Al40Cr4,mp-1203416
3.9050000000000002,-3.1094281819829654,K5Rb10Cr5F30,mp-1203661
2.6701,-2.8476226548200954,Cs4Ti2P8O26,mp-1203715
0.0,-0.3941650363157901,Gd2Ni24B12,mp-1204079
1.7532000000000005,-3.3928270192045447,Gd12Mo4O28,mp-1204194
0.0,-1.5382105244799995,Pr3Ta2N6,mp-1205481
2.7614000000000005,-2.15591320105,K1Ba2I1O6,mp-1205512
3.2051,-2.457779611714,Tl3Cr1F6,mp-1205742
0.0,-0.7511263105555557,Tb3Bi3Rh3,mp-1205981
0.0,-1.0720211199999998,Pr2Si2I2,mp-1206235
0.0,-0.4155884088888886,Lu1In1Ni4,mp-1206270
0.0,-0.45368437687499963,Sm1Cr2Si2C1,mp-1206312
0.0,-0.409002658,Sm2Cd1Ni2,mp-1206624
0.26149999999999984,-0.987477420833334,La1Bi1Pd1,mp-1206717
0.0,-1.0465986354759997,Ce3Sn1N1,mp-1206922
0.0,-0.9370908483333326,Tb1Bi1Pd1,mp-1207177
0.0,-0.4206161937499999,Y16Mg4Ir4,mp-1207822
0.0,-1.0607905532812492,Y30Ni56P42,mp-1208729
0.0,-0.7126226590000002,Pr8Sn12,mp-1209336
0.0,-0.36925319826923114,Nd9Ga4,mp-1209933
0.9415,-1.8511586815230356,Nd12Se12N4,mp-1209975
0.0,-0.25419486022058846,Nd46Cd8Ru14,mp-1210535
6.8393999999999995,-4.2094226453829995,K4Y8F28,mp-1211492
0.0,-0.2208370445,La12Al10Fe18,mp-1211603
4.0156,-1.8679862038749997,K8Sm4Br20,mp-1211730
0.0,-0.6260483127777784,Ho4Fe4B16,mp-1212115
3.6672,-1.5893768126181813,Pr4H40N4Cl8O32,mp-1212120
0.0,-0.659105137105264,Ho6Al24Ru8,mp-1212260
0.0,-0.8839205974999995,Ho8Si12Pd4,mp-1212362
0.0,-0.39256031263157953,Ho2Ni24B12,mp-1212548
0.0,-3.1587978122499996,Eu3Al9B12O36,mp-1212809
0.0,-0.5884310524999995,Dy4Zn4Sn4,mp-1213053
0.0,-0.8350193571428568,Dy4Al18Rh6,mp-1213083
0.03529999999999944,-0.3308323994339623,Dy12Nb8Al86,mp-1213257
3.5987999999999998,-1.575032224857806,K12Sm8N36O108,mp-1213357
0.0,-0.8031576216666676,Gd8Sc12Si16,mp-1213579
2.8231,-2.5568072332767238,Cs8Gd4Cl20,mp-1213731
0.19259999999999966,-2.796505903670635,Ce4Tl4P16O48,mp-1214015
4.0403,-3.348153696987777,Ba8Na8Fe8F48,mp-1214635
0.0,-1.24750767375,Zr12O3,mp-1215377
0.011999999999999567,-1.7250066723214295,Zr2Ni1S4,mp-1215577
0.0,-0.7726802107142853,Yb5P12Ir19,mp-1215833
2.7076000000000002,-2.77201433236381,Ti8Te8O24F16,mp-1216939
0.0,-2.3911216010312506,Sm4Eu1S5,mp-1219173
0.049900000000000055,-1.738496713511905,Sb3Rh1Pb4O13,mp-1219543
2.0483,-1.9110396733423918,Nd6Cd1Ge2S14,mp-1220262
0.0,-0.9195816987500001,Nd2Cu1Si3Rh2,mp-1220386
0.0,-0.17943869312500027,Nb6Os1Au1,mp-1220409
0.0,-0.4961510387499999,Nd2In3Sn3,mp-1220560
0.2931000000000008,-1.8291442809012501,Mn4Fe4Bi4O20,mp-1221879
0.0,-1.7469483549447617,Mn8Zn6Ni4O24,mp-1222033
1.1405,-2.878098651052032,Rb30Mo18O18F84,mp-1222256
0.0,-1.1112922579166657,La1Al2Pt3,mp-1222903
0.0,-0.28138400500000077,Ho2Co2Ru2,mp-1223854
0.0,-0.20558982937500003,In3Sn1Au4,mp-1223891
0.8464,-0.35759687991071437,In1Ag1Ge1Se4,mp-1223893
0.0,-0.7949556687500001,Ce2As4Au2,mp-1226657
0.0,-0.6563495849999995,Ca1Ga3Pt1,mp-1227072
0.0,-0.3516905400000002,Ba1Mg1In3,mp-1227881
0.0,-2.0978767450399993,Ba2Mn12O24,mp-1228093
1.9563000000000001,-2.9067274539285717,Ba12Y2Re6O36,mp-1228593
0.0,-0.8976752316666671,Tb4Ga4Pd4,mp-12704
0.0,-0.7536587792857148,Tm6Fe2Si6,mp-12838
0.0,-0.617210135,Yb4Ga4Ge4,mp-12846
0.0,-0.6460942211111116,Hf5Te4,mp-12884
0.0,-0.830328315,Ho4Si4,mp-12900
0.0,-0.24308123197368414,Li96Si56,mp-1314
0.0,-0.3561809031250007,Er1Co1C2,mp-13501
0.0,-0.7644048212121216,Tm4In1Ni2Ge4,mp-13511
0.0,-2.5120179510909098,Na2Ca6Ir2O12,mp-14563
1.033,-1.999601702406249,K2Gd4Cu2S8,mp-15553
0.0,-0.06530009833333376,Y2Fe4,mp-1570
0.0,-0.7020124813888882,Li3Sm3Ge3,mp-15822
0.46639999999999926,-2.128666287812501,Ba2Pr4Mn2S10,mp-16124
0.0,-1.3554984107142865,Gd1P1Pt1,mp-16340
0.0,-0.29258225988095177,Re8P4,mp-1637
0.0,-0.35246517249999876,Mn2Pt2,mp-1670
0.0,-1.1480559250000004,Zr4As4,mp-1682
0.0,-0.579289703333334,Ba2Pd4,mp-1687
0.019099999999999895,-0.7893283668749991,La4Sn8Rh4,mp-17370
0.0,-0.27791309666666564,Mo5As4,mp-1743
5.5009999999999994,-2.952779759451924,Ba2Na2B18O30,mp-17864
3.0412999999999997,-1.3890115391796876,Zn4Se8O20,mp-18373
0.0,-2.2851134906818187,Sr6Cu2Rh2O12,mp-18444
6.077,-2.9483184339484136,Li2Nd2P8O24,mp-18711
0.0,-1.108806644375,Co1Pd1O2,mp-18919
2.3211,-2.590895560000001,Yb2Cr2O8,mp-19023
0.0,-3.090647773442,Ho6Mn6O18,mp-19056
0.0,-0.2402510375000002,Nb6Os2,mp-1932
0.0,-0.5498101450000004,Ta2As2,mp-1936
1.9543999999999997,-2.6213645669557826,V2Cd1P4O14,mp-19452
0.0,-0.24309831874999954,Mn1Co2Ge1,mp-19850
0.0,-0.40699433383333455,Ti8In4Ni8,mp-20339
0.0,-0.5674396633333328,Tb2Mn2Si2,mp-20822
0.0,-0.7525147911111113,Tb3In3Rh3,mp-20875
0.0,-0.38530100874999906,Sn1Pt3,mp-20971
0.0,-0.6577063339999996,Tb1Ge2Ru2,mp-21079
0.0,-0.7846891984210524,Tm10Ge20Rh8,mp-21810
0.0,-0.12344915666666623,Mn4Te8,mp-21893
0.0,-0.573754694791667,La2In4Ir2,mp-22017
0.008099999999999774,-2.672701314659092,Eu6Ru2O14,mp-22365
0.9809000000000001,-0.5940098037202384,Zn1In2Se4,mp-22607
0.0,-0.83534541375,Co4Ni2S8,mp-22658
0.0,-0.7232515843750003,Tb6Ge10,mp-2321
0.0,-0.6495360550000013,Ti6Pt2,mp-2339
4.1073,-2.6987474672286957,Na8Ga6Si6Cl2O24,mp-23656
4.151,-1.4549161706993605,Rb4H12Se8O24,mp-24022
2.9804,-1.4386091199622915,K6Ge2H6S6O4,mp-24340
0.0,-0.28980865222222246,Ni4B2,mp-2536
2.1548,-1.5252346378061221,Ca12P4I12,mp-27272
0.0,-0.4323935899999998,Li1Pd1,mp-2744
0.0,-0.2734142287500001,Ba2Li4Si2,mp-27454
3.9021999999999997,-2.9255981497996664,K4In8F28,mp-27599
0.03069999999999995,-0.9296613895454545,Nb6Br16,mp-27771
2.5673,-2.4482938514375006,Lu4S6,mp-2826
1.4648000000000003,-0.46387136243055593,Tl16Si4Se16,mp-28334
0.0,-0.2748418853333324,Mn4Al11,mp-2856
4.393,-1.4634759760344827,Cs4Al4Br16,mp-29103
3.8659000000000003,-2.519975813293333,Tl4Sb4F16,mp-29286
0.0,-2.0479000820754543,Na2Cu6F14,mp-29343
2.3292,-1.6909561384267233,Cs2Bi2O4,mp-29506
1.3481999999999998,-1.0900513808674575,Rb1Bi1S2,mp-30041
0.0,-0.33979100111111116,Tm1Ag2,mp-30359
0.0,-0.4560019786666672,Ti4Ga6,mp-30673
0.0,-0.6491364313888894,Nd3Tl3Pd3,mp-30799
3.6222,-1.624439263028889,Ca4N8O24,mp-3142
6.8714,-4.093182168045883,Ba12Al8F48,mp-3361
0.0,-1.1279640220000005,Y1Si2Rh2,mp-3441
1.5034,-1.9424227207142855,Ga4Ni2O8,mp-35236
0.0,-1.475495558653846,Ta8Mn2S16,mp-3581
0.0020999999999995467,-2.085432653131428,Mn4Sn2O8,mp-36884
0.0,-0.8863385468571436,Eu1Ni2P2,mp-3758
0.0,-1.9553936425000007,Li6Ru2O8,mp-37692
0.0,-0.5543057865945616,Ag7N1O11,mp-37695
1.4473000000000003,-1.8209722332812506,Er1Tl1S2,mp-4123
0.0,-0.4482400883333331,Dy2Ni4,mp-421
0.0,-0.7794233929166667,Pr4Ag4As8,mp-4308
0.0,-0.660260645042018,Pr2P24Ru8,mp-4341
0.0,-0.8137141216666676,Ce1Al3Pd2,mp-4785
1.5827,-1.55154580524337,Cs2K4Fe2O5,mp-505040
0.0,-0.2539297645633323,Ni8W12N4,mp-505341
0.0,-0.6498334278333339,Mg4Ge2B4Rh10,mp-505693
0.7043000000000008,-0.9115131595312507,Ga2Cu2S4,mp-5238
0.0,-0.3244680824999999,Ba1Cd1,mp-527
3.3796999999999997,-2.2102397340000004,K4V4Pb4O16,mp-541508
0.0,-0.8980387638333326,Sc4Ga2B4Rh10,mp-542024
0.038799999999999724,-0.225618392368421,Gd2Zn17,mp-542437
0.0,-0.5651177462499994,Ti6Ir2,mp-544
3.7337999999999996,-3.118390230164259,Cs4Nb2Si8O23,mp-555696
2.9825999999999997,-2.2160861966875,Dy4Te10O26,mp-555940
4.3811,-1.5893252010375993,Mg2Tl2As2H24O20,mp-556009
4.1552,-3.309606172023809,Ba1Zr1P2O8,mp-556139
1.1656000000000004,-1.988657590728841,Rb12Sb20O56,mp-556234
2.7641,-3.2262777028260876,Li8Ti24Pb4O56,mp-558619
0.0,-0.5129204755555558,Y3Mg3Ga3,mp-5590
4.8957999999999995,-2.5718467548095245,K4Bi4P16O48,mp-559020
3.3150999999999997,-2.5376541271142856,Na8V4P4O24,mp-559869
1.9283000000000001,-0.9858849560926316,K4Hg2Br4N4O24,mp-561222
0.0,-0.32058061538461513,Tm1Mn6Ge6,mp-5641
0.0,-0.8335079448571427,Sr1Co2P2,mp-5671
0.0,-0.06451295249999944,Pr4Os8,mp-567339
0.0,-0.7486814177777776,Er10Co4Te4,mp-567517
0.0,-0.9768826311538462,Yb56Mn4Sb44,mp-568088
2.4144,-0.803050563611111,In8Br16,mp-568108
0.0,-0.5018397624074077,Lu4B16Ru16,mp-568184
0.0,-1.4098689631584855,Pr16B14Cl14,mp-568295
0.0,-0.07209450833333382,Ba2Rh4,mp-568430
0.0,-0.4409570032051283,Mg16B2Rh8,mp-568621
0.0,-0.6114023051666673,Sm12Ni12Sb36,mp-568805
0.0,-1.606300325475833,Ti8Al2N6,mp-568934
0.0,-0.5000257188888892,Dy3In3Ni3,mp-569086
0.0,-0.6493164628571435,Sr1P2Os2,mp-569310
0.0,-0.5320337243749993,Pr4Mg4Si8,mp-569384
1.3625000000000003,-0.7562994192636358,Sr6Ga6N10,mp-570971
3.2818,-1.484044619757778,Al4Te4Cl28,mp-573751
0.0,-0.5553961318333329,Ba4In8Au8,mp-574176
0.0,-1.9066995726060416,Ce8Mn2Se12O2,mp-582774
0.0,-1.658003054722223,Cu2Sb4O12,mp-5831
0.0,-0.6855151890000002,Pr1Si2Os2,mp-5852
0.0,-0.09873673666666605,Hf10Cu2Pb6,mp-607409
0.0,-0.34578744606060624,Zr4In5Co2,mp-607475
3.8571999999999997,-1.5484468831034481,Cs1I1,mp-614603
0.0,-0.7223594762500003,Y20Bi12,mp-624187
5.142600000000001,-2.69784261653,Al2H2O4,mp-625054
0.0,-0.6044828031720002,Eu1H3Pd1,mp-644246
0.0,-0.6241582517613637,Tl4As12Pb4S24,mp-647900
0.0,-0.3284194763333337,Nb12Te48,mp-650328
0.0,-2.448960224583333,Ba6Mg2Ru4O18,mp-6520
0.0,-1.7414957861107405,Ag4Ir4F28,mp-662534
0.0,-2.058950258666667,Ba2Dy1Cu4O8,mp-6691
4.0904,-1.9152963456157635,Cs6Tb4Br18,mp-669304
0.0,-3.820872949384583,Ba8Yb6F34,mp-676767
0.0,-0.6980304780000004,Er8Fe12Si20,mp-680269
0.0,-2.2200480724043317,Rb56Si24Ge16O68,mp-680314
0.0,-0.3213854368181818,Yb32In12,mp-680653
0.0,-2.027478046986665,Mn14Sb2As2O24,mp-699691
4.108199999999999,-3.2745314781250006,Li4Y4O8,mp-7020
2.9156999999999997,-1.4236137306828003,Cs4Fe4H96Se8O80,mp-721077
3.9896000000000003,-2.3963179893397477,Na6Ga2P4H4O18,mp-733844
0.5166,-1.6428415002777785,Hg1Sb2O6,mp-754065
0.9412000000000003,-2.9206396321063637,Ho4Mn4O14,mp-754918
0.0,-1.6190517763068173,Li4Ta6S12,mp-755664
1.5918999999999999,-1.8153821671428574,Li2Ni2Sb2O8,mp-756254
3.8399,-2.2885819123452396,K4Sb2P2C2O14,mp-756981
0.5083000000000002,-0.38916477912666636,Li1Zn1N1,mp-7575
2.4185999999999996,-2.0040493180826666,Na4Sn2Ge4H4O16,mp-757981
0.0,-3.326388991645833,K6Ti16O34,mp-758970
1.6297,-3.04678691481375,Li4V2O2F8,mp-780857
0.0,-0.8311072541666675,Ti4B4,mp-7857
0.0,-0.25063151499999936,Li1Rh2Pb1,mp-861663
0.0,-0.7435318293749997,Hf2Re1Ir1,mp-861978
0.0,-0.6041673974999995,Sc2Ga1Ru1,mp-862311
0.0,-0.5866025662499998,Al1Zn1Ir2,mp-862705
0.0,-0.013896319999998852,Ir3Rh1,mp-863709
0.0,-0.42994351875000003,Hf1Zn1Ni2,mp-864807
0.0,-0.7744028425000007,Lu2Pd1Ru1,mp-865320
0.0,-0.08362658749999996,Y1Mg3,mp-865376
0.0,-0.08027567625000032,Tm2Mn1Os1,mp-865451
0.0,-0.3833540537500002,Li2Cd1Pd1,mp-865582
0.0,-0.5465181481250001,Ca1Nd1Hg2,mp-865955
0.0,-0.8169910800000002,Yb1Sb1Pd2,mp-865996
0.0,-0.7648462037499995,Mg1Si1Rh2,mp-866087
0.0,-0.2526572268750007,Pm3Si1,mp-867165
0.0,-0.3312984587500001,Pr1Mg1Cd2,mp-867178
0.0,-0.7223397899999995,Pr8Ge14,mp-867190
0.0,-0.36370598750000016,Li1Zn2Au1,mp-867255
0.0,-0.26392159541666693,Cd1Ag1Pd2,mp-867260
0.0,-0.06567135937499913,Re6Os2,mp-867264
0.0,-2.3481934322704086,Re4P4O20,mp-867296
0.0,-1.3717576177500004,K2Eu2As2S8,mp-867419
0.0,-0.3908159675000009,Li1Al1Ni2,mp-867812
0.0,-0.4157136916666664,In1Rh1,mp-899
1.3347000000000002,-1.3775471607500003,K1Er1Te2,mp-9263
0.0,-1.4540305261899984,Ce2Cr1N3,mp-9277
0.0,-0.1829354900000002,Sc2Tl1Tc1,mp-972861
0.0,-0.31030426375,Ho1Lu1Cd2,mp-973276
0.0,-0.5554043826666667,Hf8Co8Ge14,mp-977049
0.0,-1.0669457749999998,Tm1Mg1Pt2,mp-978984
4.007899999999999,-2.8096305352887128,Cs2Tl1In1F6,mp-989537
0.0,-0.8507485324999999,Y2Si2,mp-9972
0.0,-0.527324116666667,Ca2Co2Si2,mp-1018658
0.0,-0.7937719566666667,Li3Ce1Sb2,mp-1018761
0.0,-0.7462487058333332,Pd2O4,mp-1018886
5.153700000000001,-2.36548456008195,Rb16B8S16O68,mp-1020662
0.0,-0.6687720638888877,Lu1B2Ir3,mp-1024990
0.0,-0.48541101102040835,Zn1P1Pd5,mp-1025258
0.0,-1.1361704928566663,Li4V8N12,mp-1029338
0.0,-0.6493569053057138,Ba6Os2N6,mp-1029640
0.0,-0.17211686000000004,Bi2Rh2,mp-1064554
0.0,-0.5568018175000002,Yb2Si2,mp-10651
0.0,-2.9941701545000017,Ho2Bi1O2,mp-1067937
0.0,-1.6762221769642878,Eu4Sb2O1,mp-1078192
0.0,-1.3572821905949999,La4Bi2N2,mp-1078349
0.0,-1.0120046999999994,Y2Sn2Pt4,mp-1078547
0.0,-0.5527626388888885,Yb3Cd3Ge3,mp-1078690
1.0873,-2.6712898902499993,Sr2Mo2O6,mp-1078716
0.0,-0.5732622984999999,La2V2Ge6,mp-1078802
0.0,-0.7722430341666668,Zr3Re3Si3,mp-1079238
0.32430000000000003,-2.443514179647379,Cs2Na1Ce1Cl6,mp-1079458
0.0,-0.7506110049999997,Er4Co2Ge4,mp-1095140
0.0,-0.5537801066666661,Hf3Ga3Co3,mp-1095158
0.0,-0.8327217583333338,Sc4Ga4Pd4,mp-1095544
0.0,-0.7249168675000005,Nb4Co4Si4,mp-1095573
1.0735999999999999,-0.4220700049999995,Te4As4Ru4,mp-1095634
3.509,-2.1107779263792237,Cs4V2H2O8,mp-1096946
0.0,-0.5802709455555559,Gd3Al3Ni3,mp-1101090
1.4815000000000003,-2.397567668689107,V2P2H2O10,mp-1101197
0.0,-0.34780410250000077,Ho4Os8,mp-1101953
0.0,-0.7926809475000004,Dy4Al4Au4,mp-1102191
0.0,-0.6132052116666671,Dy4Ga4Ni4,mp-1102760
0.0,-0.6309611449999993,Eu4Zn4Pd4,mp-1102897
0.0,-0.8404226616666671,Sc4Co4Si4,mp-1103034
0.0,-1.0648283183333334,La4Al4Pt4,mp-1103109
0.0,-1.0168271516666667,Tm3B3Pt6,mp-1103146
0.0,-1.2520187135714278,Ho6Pt8,mp-1103863
0.0,-1.2635150838333344,Pr1Mo6S8,mp-1104449
0.0,-0.6430800356666666,Ca9Pd6,mp-1104661
0.0,-0.6189714657142856,Lu2Ni8As4,mp-1104964
0.0,-0.5169372117647058,Ho4Ga12Fe1,mp-1106297
0.0,-0.8101911519999995,Ce4Ge10Rh6,mp-1106369
3.1903,-1.585985843658046,Cs2Nd1Ag1Br6,mp-1112944
5.227,-3.023984743288713,Cs2Li1In1F6,mp-1113016
0.0,-0.8179760060714294,V2P2,mp-1114
0.0,-0.02610374999999998,Tl1Hg3,mp-11474
0.0,-0.11268791750000062,Mn1Ni3,mp-11501