band_gap,formation_energy_per_atom,full_formula,task_id
2.4200000000000004,-1.6966956246428575,Fe4As8O16,mp-756549
5.1353,-3.4381025600175,K2Nb2F12,mp-7571
1.9914,-1.6936805841250009,Na40Fe8O32,mp-760318
5.7538,-2.2012531669692854,K4P4H12O16F4,mp-761185
1.8245,-1.3768314881785717,Na12Au4O12,mp-768915
0.7825000000000002,-1.0898987539285727,Li8Ni16O32,mp-774941
3.2382,-2.414797251319445,Li16Fe16B16O48,mp-783910
4.953200000000002,-3.1320262361904763,Ba2Ca1B6O12,mp-8271
0.04499999999999993,-0.9990650512499996,Li3Nd1As2,mp-8406
5.8537,-3.755812608833,Ba4Ca4Ga4F28,mp-8416
0.006699999999999484,-1.0842208080000004,Na1Pm1Te2,mp-862945
1.5987,-1.4407711986979177,Y2Cu2Pb2S6,mp-865203
1.8014,-2.4823870979545464,Ba8Pt2O12,mp-8727
2.6145000000000005,-0.8668912435927273,Li12Mo2N8,mp-8804
3.759,-0.8062828233774999,Mg1C1N2,mp-9166
0.16320000000000026,-0.2785323343750004,Li2Pm1Ga1,mp-983460
2.8293,-1.9620327523582997,Rb2Li1In1Cl6,mp-989583
1.4224,-0.12665191392857147,Si8P16,mp-9996
5.573499999999999,-2.646673683304062,Sm4H4S4O20,mp-1005754
0.7164999999999999,-1.03724263375,Er1Tl1Te2,mp-1007907
0.2709000000000001,-3.283142201925,K8Ce4Al4Si16O48,mp-1019774
5.5005,-2.087549414295834,K4B4S16O56,mp-1019805
4.7222,-2.991744258375,Li12Al4Si4O20,mp-1020023
0.8929999999999998,-1.6301354424485712,Rh1F6,mp-1025250
0.012599999999999945,-0.6241558639062497,Cu2Sn1Hg1S4,mp-1025467
1.9299,-0.5411275802899993,Na12Mo8N20,mp-1029845
0.16959999999999995,-1.3106087025000004,La4Te4As4,mp-10383
1.7902999999999998,-0.9743395283774996,Ba4Li2Re2N8,mp-10555
4.6825,-0.8212197503507142,Na2P2N4,mp-10572
1.8679,-1.6944511653640462,Cs2Ag1Bi1Cl6,mp-1078258
0.24960000000000004,-0.732518168,Ba4Zn2Bi4,mp-1079130
2.4765,-0.44621189490249996,La1Al1H6,mp-1079283
0.8548,-0.901699936,Nb2Br8,mp-1080428
0.28600000000000003,-0.7846110441666667,Li4Yb4Bi4,mp-1095265
0.9581,-1.9413463480357152,Sc4Cd2S8,mp-10953
0.4573,-1.446897043697917,Y4As4Se4,mp-1095603
1.9279,-1.3529693449519995,Li2Hf1N2,mp-1097065
0.3749000000000002,-0.3989769578645834,Bi4Rh4Se4,mp-1101765
0.6322999999999999,-0.2431569637499997,Sn1Bi4Te7,mp-1101917
2.8524000000000003,-1.1808696274876844,Cs4Cd2I8,mp-1103539
1.5277000000000005,-0.6314561300848212,Y2Tl2P4Se12,mp-1105136
3.7557,-0.7950191008437502,Yb2H6C2N6,mp-1105386
0.1291000000000002,-2.038293398625,La1Cr4Cu3O12,mp-1106068
1.5073999999999996,-2.325888485816328,Al4Fe13Si2Sb2O28,mp-1133344
0.9450999999999996,-1.97968999115625,K2Sm4Cu2S8,mp-11604
3.9398,-3.201562121375,K1Lu1O2,mp-1178135
0.8045999999999998,-1.0973396219045717,Ca3P1N1,mp-11824
1.0748999999999995,-2.5254521736875004,La2Ho6S12,mp-1188862
1.1419,-0.9709420250000002,Sr6Al4As8,mp-1189305
2.2453,-1.0688561234886358,Na4Zn2Ge4S12,mp-1190399
1.9821,-3.220923712244484,Cs4V4F16,mp-1192215
3.0793000000000004,-1.7324842895800172,Cs2In2Te6O16,mp-1192413
1.4167,-0.8326197781250002,Mg8Ge4Se16,mp-1192564
1.4904000000000002,-1.7770812996367005,Cs4Ba4V4S16,mp-1192754
0.08050000000000003,-1.2576529209692309,Fe2W4Cl20,mp-1192985
2.3019,-0.7383378434999999,Li8Mg4H8N8,mp-1193106
2.6307,-2.600930733214286,Be4Cr8O16,mp-1193887
1.4436,-1.9315115799107152,Sr4Lu8Se16,mp-1194337
3.4916,-2.5912088090622505,Rb2Na4Mn6P8Cl2O28,mp-1194649
1.5522999999999998,-2.2993073732227898,P24Rh8W16O120,mp-1194839
2.9593,-2.8905512664607853,Na4Lu4B4Te2O20,mp-1195028
4.9123,-0.40275464733759975,Ca2B24H24,mp-1196257
1.2798999999999998,-1.0966655683040003,Al8Bi28Ru4Br8Cl32,mp-1197319
2.4602000000000004,-1.7764085536041674,Ag12Sn6S36O126,mp-1197599
5.6096,-2.9383368846657465,Na12B8P4O20F16,mp-1197849
3.7897,-2.927575206851853,Mg20Sn4B8O40,mp-1198031
0.1530999999999998,-0.32184704292253513,Sm26Zn116,mp-1198409
1.6573999999999995,-0.38584832555555537,Mo12I24,mp-1198690
2.1193,-1.172679853084286,Zr8Hg32P16Cl48,mp-1200713
0.14429999999999998,-2.403311353315549,Sm4Nb4S14O60,mp-1201050
0.3944999999999999,-2.7439182425951882,Sr2Mn6P6O24,mp-1201132
5.2969,-2.924703058313248,Cs4Ca4P12O36,mp-1201263
3.1934,-2.2874423267771427,B6Pb12O18F6,mp-1202733
1.4238,-1.0793249629166672,Hg12As4O20,mp-1203433
4.5999,-3.095918848475369,Ba8Na2Al4B16Cl6O36,mp-1204585
5.3415,-1.4916324615251508,In4H48N12F24,mp-1204788
4.4699,-2.671858369066483,Rb4Sm8Cl28,mp-1209170
2.6115000000000004,-1.1487756556591076,Rb1Hg5Cl11,mp-1209214
3.4396000000000004,-2.678806427112069,Rb2Er2W4O16,mp-1209367
0.0049000000000000155,-3.0476535116649814,Rb4Al4Cu4F24,mp-1209376
4.9869,-2.4835748643094484,Rb12Ho4Cl24,mp-1209492
0.09109999999999996,-1.5091840875073892,Rb8Zr6Mn1Br20,mp-1209503
0.1659999999999997,-1.8452142938362068,Rb8Ce4Br20,mp-1209654
2.7487999999999992,-2.5230171962500005,Nd4Fe4Ge8O28,mp-1210319
2.6189,-0.7572408407330002,S32Cl128,mp-1210452
0.9244,-1.4444183831507946,Na4Ag4Te20O56,mp-1210534
2.9947,-2.9861756307113323,Mg4Ta4Mn4O18,mp-1210629
3.2999,-2.5967621617083325,K2Sm2Mo4O16,mp-1211306
4.8546,-3.3654042045383328,K4Sr8Si16O40F4,mp-1211577
2.9059,-2.435991533,K8Hf2O8,mp-1211649
3.2056000000000004,-2.660657801375001,La6Sb10O24,mp-1211710
3.0921000000000003,-1.530976735420713,Li12Dy4N24O72,mp-1211772
4.745,-2.5373509643500003,K8Nd4Cl20,mp-1211903
3.089,-1.531613004795714,Li12Tb4N24O72,mp-1212130
2.9770000000000003,-2.116196699832974,Cs16Ga16O32,mp-1213401
4.0889999999999995,-0.2856447240142853,Ca2Ga2H10,mp-1213976
3.2763,-3.1466091838749994,Ca12Tm8Ge12O48,mp-1214304
2.0795000000000003,-3.1920552899166657,Ba3Ta2Co1O9,mp-1214485
5.2411,-3.156777854596774,Ba6Tm2B18O36,mp-1214609
3.4718,-3.1314518366944437,Al12Fe4Si4B4O36,mp-1214903
0.04249999999999998,-2.4956436136184217,Ba20Ga4Ru8O44,mp-1215133
1.9098,-1.9127903088750011,Cd12Fe8Ge12O48,mp-1215138
3.2310000000000003,-2.850724364479167,Sr2Nd2Ga6O14,mp-1218128
0.011700000000000266,-0.2040619129761904,Sr12Cd72,mp-1219283
1.6693,-1.0042655051501446,Rb16Sn32S72,mp-1220891
4.1984,-2.992943555692728,K1Mg3Al1Si3H2O12,mp-1223564
0.4965,-0.6795805210909089,K8Ba4Sn2As8,mp-1224063
0.7217,-1.2130024696875004,K10Mn4Sn4S17,mp-1224600
3.6127,-4.1023393203762515,Dy6S2O2F10,mp-1225346
5.3546,-2.9140331624137934,Ca2Y2P14O40,mp-1227362
5.1322,-3.1521032210989017,Ba1Be2P2O8,mp-1227988
4.6912,-3.1028299188461537,Al2Tl2Si6O16,mp-1228177
1.8282000000000005,-2.5632242770277767,Ba3In2Mo1O9,mp-1228643
2.0817,-1.08458999509625,Ba14Sr10Mo8N32,mp-1228681
0.3764000000000003,-0.4747927592307694,Ba1Te6Mo6,mp-1228689
2.3042,-2.4667263309782608,Ba3Fe2Ge4O14,mp-1228826
1.8575,-1.3927254263418178,Ca12Te6N4,mp-1246515
1.5453999999999994,-1.0482681685344826,Cs2Lu2Cd2Te6,mp-12492
0.9108,-0.9094672366666671,Ho2Ag2Te4,mp-12904
3.772,-3.0635616928409104,Y8Ge8O28,mp-13546
2.9224999999999994,-2.7003058385833336,Ti2Cd2O6,mp-13641
4.4775,-3.3079341692142865,Na12Nd12Si12O48,mp-13774
1.8083,-1.6747283325000004,Sr2Cu4O4,mp-13900
3.9542,-3.0077667730769235,Sr4Ga8Si8O32,mp-14235
3.1739999999999995,-3.446209549212963,Nd2Ta14O38,mp-14676
1.808,-2.3023502948855317,P18Rh6O54,mp-14935
1.1658999999999995,-2.0423363820312503,Ba2Er2Cu2S6,mp-14969
1.5141999999999998,-1.6966512617968754,Li1Tb1Se2,mp-15793
1.427300000000001,-3.2094158505000014,Sm2Te1O2,mp-16033
1.7018000000000002,-0.8446094651128474,Ag8Se4O12,mp-16913
2.7838000000000003,-1.9771373755000001,K16Ge4O16,mp-17015
3.9974,-3.471876371015555,Na4Sr4Cr4F24,mp-17259
2.5551,-2.1863657828409093,V4Zn4O14,mp-17458
2.0801,-2.5402178793209376,Sr8Sn4S12F8,mp-17676
3.0359,-2.0002600199107143,Ge6Sb4O18,mp-17708
0.7612000000000001,-0.7942305517857141,Ca12Ge8P16,mp-17817
5.2951,-2.938335575634236,Rb2Sm2P8O24,mp-18255
2.9908,-2.8645619263412696,Ti4Ni2P4O20,mp-18281
3.6072,-2.9005932759999995,Na4Ho4Ge4O16,mp-18334
1.0936999999999997,-2.666497760708749,Tb4Mn8O20,mp-18525
2.6796,-2.194627901538462,Ba1V2Ni2O8,mp-18723
0.042799999999999734,-0.2855515825000001,Sn1Te1,mp-1883
4.388,-2.2487512300985224,Rb4W2O8,mp-18864
2.6812,-2.1446532830698533,Cr4S6O24,mp-19361
1.8662,-3.1901858370418426,Ba5Nd8Mn4O21,mp-19460
4.0741000000000005,-2.4063055280769223,Na10La2Mo8O32,mp-19479
0.010200000000001095,-0.3040700761538456,Ce1Al8Cu4,mp-20003
0.08210000000000006,-2.791731047916666,Ba4Yb8Co4O20,mp-21083
1.3674,-2.0244958402777784,Cr4Te2O12,mp-21355
0.002699999999999925,-0.7184818680000007,Gd1Si2Os2,mp-21408
1.2418999999999998,-1.7303151167500002,Na2Bi2O4,mp-22984
2.2732,-1.3882792695833337,Bi2Br2O2,mp-23072
2.1876999999999995,-1.110965455952917,In32Cl32,mp-23276
2.5498000000000003,-0.9881419058638096,P4Au4Cl16,mp-23355
2.8354,-2.1039551043055558,Bi16B8O36,mp-23356
2.1391,-1.1058038724904211,Cs2Te1Br6,mp-23405
4.7799,-1.4313029095535237,P4H32N8O12F4,mp-24157
4.2649,-1.753219452305768,Cs4Fe2H24S4O28,mp-24220
2.6074,-2.5754896705714296,Li12Fe8P12O48,mp-25993
3.6402,-2.6219839296252623,Li2Mn12P14O48,mp-26005
4.4079000000000015,-1.7815922335069447,As4S2O12,mp-27230
3.8908,-2.579299375952,Sb2As2F16,mp-27317
1.2692,-0.8087746204166665,Cr6Br18,mp-27734
4.917,-2.6899112486949996,Tm2Cl6,mp-28044
1.5838,-1.685083987714,As2Br6F12,mp-28159
2.4379,-1.9727550216071423,Li24Bi8O24,mp-28510
0.06700000000000017,-3.15685153032653,K2Ta15O32,mp-28530
0.6313,-0.6270469335591129,Cs8Sn4Te16,mp-28877
3.835,-0.3990527286436363,Ba2Re2H18,mp-28911
1.5683,-1.0196932884482546,P3Br1Cl14,mp-29033
1.0192,-0.5019097817013889,Na10Au2Se24,mp-29198
2.6066000000000003,-0.8814843417499999,K4Ga4I16,mp-29402
0.8537000000000001,-0.214046374296875,Cu4Se8Br4,mp-29567
1.4069999999999998,-1.6054759085883616,Cs4Eu8I20,mp-29613
0.8085,-1.1154488668451783,Re4P2Cl26,mp-29878
1.6517,-1.4411869217187503,Au8S8O32,mp-30003
5.7447,-1.124430966376666,Li4Cl4O16,mp-30301
3.5474,-1.0415881229775004,Li8H8S8,mp-30959
1.3824,-1.7930692172823617,Pr8Se6N4,mp-31303
3.4828,-3.769394471250002,Nd6Ta2O14,mp-31417
0.1896,-0.1483577667528738,Rb3Ga9,mp-31493
3.137,-2.649476791125001,Sm6Sb10O24,mp-3154
4.4910000000000005,-3.3792386697672407,Na2Al22O34,mp-3405
2.864,-1.3170036224399997,Ba4Si4N8,mp-3777
2.7499,-2.4619549083333334,Zn12Si6O24,mp-3789
0.4219999999999999,-0.7061617883405171,Rb4Mn6Se8,mp-4052
3.0901000000000005,-3.461349323385415,Ba5Ta4O15,mp-504554
2.3938,-1.9796273016125392,Co8P4H4O20,mp-505217
4.1274,-1.4116527977874187,Sm2H36I6O18,mp-505698
1.3521,-1.0453092809626443,Cs2Pd3S4,mp-510268
3.3129,-1.76732003465625,Na4Se2O8,mp-5141
3.5820000000000003,-3.5839746919214286,Ba4Cr4F20,mp-541031
1.4867,-1.7346694491266668,Zr2Br2N2,mp-541912
5.0308,-1.2952779177817308,H52S8N12O32,mp-541932
5.1644000000000005,-2.0448574996436366,Mg2Al4Cl16,mp-542463
1.3683999999999994,-2.36939106125,Ho1Bi2Br1O4,mp-546625
2.4287,-1.5373333142049812,Rb1Ge1I1O6,mp-549697
0.8251999999999997,-3.3217518436553024,Nd2Ti2S2O5,mp-552028
1.2218999999999998,-2.3085036078125,Nd1Bi2Br1O4,mp-553242
0.07469999999999999,-1.851791726711309,K4Na4Cu12S12O52,mp-554726
1.3376,-2.3947107481525003,La12S12N4,mp-555129
1.5297,-3.005480317321428,Sr16V8O32,mp-555382
5.2189000000000005,-2.2345541188068188,K2Na2S4O14,mp-555576
1.6,-1.9115446209709812,V4Hg16P8O36,mp-555798
4.9784,-2.9576104606692857,Na8Be8Si24H8O64,mp-556001
0.16149999999999975,-2.2040826481944444,Sr4Co4O10,mp-556076
3.1248,-1.9613464091783408,Rb8Mo4Se4O24,mp-556349
2.7566,-3.46569300943,Ba4V4O4F16,mp-556379
5.5798999999999985,-2.1677965722875516,Na8P4H4O12,mp-556699
2.2118,-1.1840139848263893,Tl3Ga9S13O2,mp-556717
2.2135,-2.2421900045952383,K4Sb8P4O32,mp-556756
4.2892,-2.68010117862,Li8Al6Ge6Cl2O24,mp-556886
1.9524,-0.7645961322716666,Hg4I4N4O12,mp-557250
4.0723,-3.007730776232965,Rb2Na1Fe1F6,mp-558078
3.6165,-3.3831334120500016,K2Nd4Nb2O12,mp-558128
1.5741999999999998,-1.8235025096186663,Ba4Au8F48,mp-558168
2.2349,-1.1088769487864012,K12Cu4P8S28,mp-558415
2.0205,-1.992695789114584,Ba8Zn4S12,mp-5587
5.218299999999998,-3.0283388397345448,Na10Ga6F28,mp-558924
2.8617,-1.524867199959048,Sn4P8Cl40O8,mp-559064
1.1690999999999998,-1.077811649940942,Rb4Mn2P4S12,mp-559643
1.8996,-2.4952414677891164,Fe12P16O56,mp-559713
3.3576,-2.5839959550306704,Rb4Mn16P12O48,mp-560306
4.102600000000002,-3.3208118602335173,Zr4P4O18,mp-560358
2.3232,-2.4833665470775856,Cs4V8O18,mp-560444
1.1799,-2.5224644197588515,Rb2Co1F6,mp-560878
4.1137,-2.640385418054027,Mn12B28Br4O52,mp-560911
3.3087,-2.5188381744846944,K8Fe8P8O32,mp-561267
0.15859999999999985,-3.3260845943994446,K4Eu8Si16O40F4,mp-561529
3.113,-3.313847642343749,Gd8Ge4O20,mp-561584
4.2397,-2.9100403541570876,Cs16Si16O40,mp-562345
1.924,-0.6995418049040177,Na8P4Se12,mp-567228
1.4132000000000002,-0.8387385074466659,Sr12Mg4Ge4N16,mp-567398
4.8987,-2.47687781419738,Cs2Li1Y1Cl6,mp-567652
2.4442000000000004,-1.0910311326824562,Rb16Ta16N32,mp-568557
0.9451999999999998,-1.895206981534112,Cs2Lu2Nb12Cl36,mp-570921
1.0813,-0.5757592834191237,Rb10Sn2P6Se30,mp-571228
3.765800000000001,-0.2906451986855553,C6N6Cl6,mp-571324
1.2152,-1.8120060278055168,Rb2Mn1Cl6,mp-571648
1.9456,-2.9774693470874327,Cs4K2Mn6F24,mp-572298
2.5856,-1.2483925965224456,Cs4Mo12Br12Cl16,mp-581922
0.4334,-1.1502482353616663,Fe6Cl18,mp-583463
4.8651,-2.8845910002050004,Na1Sb1F6,mp-5955
5.078,-2.8605131488170503,Cs2Li2B12O20,mp-5990
3.722,-3.4631310778205133,Ba4Ti2Si4O16,mp-6081
3.5447,-1.8463659189439656,Cs4Te2O6,mp-614803
1.4798,-2.4284355393081904,Cs2V5O13,mp-616573
0.3134999999999999,-0.8833173401326532,Na4Sr8Al4P12,mp-620652
3.4713,-2.9414279690873015,Li2Gd2P8O24,mp-6248
2.8471,-1.7437765422280558,Co2H4S2O10,mp-643547
2.2134,-1.1961490518400002,K4I4Cl16,mp-647366
2.3552,-0.7354572682142858,Mo24Pb4Br56,mp-649327
0.9449999999999998,-0.3419806299715912,Nb4Te8Se8I24,mp-653891
0.7639000000000005,-0.3548711200976564,Tl9Sb1Se6,mp-676274
2.9445,-2.238486165089573,Nd20Si20Br2N34O18,mp-677195
4.3177,-3.210525635654136,K8Lu4Zr4P12O48,mp-677250
0.9073,-2.583348585755379,Cs2K1Cu1F6,mp-6968
3.6018000000000003,-1.972588292068889,Li6Te2H2O8,mp-696949
3.2824,-0.3169550741780933,Cs8Mg6H20,mp-697948
5.3848,-2.334802983766429,Zr2H12O6F8,mp-706386
5.7353999999999985,-2.8845528809405883,Be8Si4H4O18,mp-707304
2.7976,-2.458338966115201,Na8Al6Ge6N2O28,mp-720104
0.2862,-2.6342542029,Sr40Fe18Co2Mo20O120,mp-720269
1.6744,-1.235023355331358,Cs2Pr2Hg2Se6,mp-7211
3.6679,-3.0777742582112078,Rb1Er1O2,mp-7477
3.7405,-2.824874824583333,Nd2As2O8,mp-755357
1.5130000000000001,-1.9667508331250003,Li3Fe4Sb1O8,mp-756320
0.8219000000000003,-0.2326751915000003,Mg4As16,mp-7623
3.4604,-2.4817283767361107,Li12Bi4B8O24,mp-768820
3.0346999999999995,-2.9990945794444457,Sm8Te4O24,mp-772900
3.8648,-3.4131926940104167,Er12Ge6O30,mp-774547
3.4525,-3.5729333625,Tb2Nb2O8,mp-780033
2.061,-2.520889932436975,P6W4O24,mp-780572
2.0675,-1.408307368125,Pm2I6,mp-863695
3.865,-2.750670166443965,Cs4Zr2O6,mp-8759
4.2582,-2.5977893748000005,K2Ho2C4O12,mp-9804
1.8795,-1.5195248424500007,Na3Br1O1,mp-985586
1.3735,-1.3828574946991743,Cs4Zr2Se6,mp-9856
0.15479999999999985,-0.7289290496031745,Ba2Ag2P2,mp-9899
1.3524999999999998,-1.7026889904218754,Na1Gd1Se2,mp-999489
4.8123,-3.644034840138889,Ba2Y8Si10O34,mp-1019546
2.9739000000000004,-1.5323193119340004,La6Si12N22,mp-1019893
4.1352,-1.642459926110714,Sr4Mg4P12N20O8,mp-1020629
2.7589,-1.296973573026666,Ba12Ta24N48,mp-1029616
0.1902999999999997,-0.6503485625262062,Rb16Cr16N32,mp-1029828
1.6088,-1.3040254942959777,Cs4Ti2Ag4S8,mp-10488
0.043099999999999916,-0.5109051999999998,Sr3Al2Ge2,mp-10671
4.1768,-0.9576343080555556,Mg1Br2O6,mp-1078861
2.0371,-0.3917500883399998,Pr1Al1H6,mp-1079627
0.16249999999999964,-0.4799077460606069,Eu1In2Ge4Ir4,mp-1095411
4.7794,-2.08789754963875,Li2Al4H12Br2O12,mp-1097038
0.2385999999999999,-1.385108647864584,Pr4Sb4Se4,mp-1102688
3.2414,-1.9817559268278158,Cs2Br2F8,mp-1103152
0.3628999999999998,-1.4338755161979162,Ho4As4Se4,mp-1103217
2.0934,-1.590457119218749,Te2Pb4O10,mp-1105700
0.4299,-1.2822223797708332,Ti4Ge4S12,mp-1105715
0.012299999999999756,-0.33206044562500026,Dy12Ru4,mp-1105841
3.5058,-2.775253607314,K2Li1Tl1F6,mp-1111658
0.04300000000000015,-0.4539526583333332,Hf2Te10,mp-1168
2.3148,-2.3129216367619048,Na4Fe2P2C2O14,mp-1176399
0.1351,0.0,Cs29,mp-1184151
0.018000000000000238,-0.032916669199999735,Mg149Pt1,mp-1185568
0.024500000000000192,-0.015414435333333169,Mg149Cr1,mp-1185585
0.15290000000000026,-0.023963189133333267,Mg149Te1,mp-1185638
7.0261999999999984,-0.11574869710666627,Si2H16,mp-1188318
0.5390999999999999,-1.400766701000001,Dy8Te12,mp-1188427
0.058300000000000025,-0.4513569793181818,Nd6Ga4Ni12,mp-1190620
1.1957,-2.4179443702272736,Sr6Zn2Co2O12,mp-1191185
1.6718999999999995,-1.99660344784091,Ba2Zn2Te4O14,mp-1191811
2.1395,-2.146681747386364,Tl3V5O14,mp-1192129
3.2448,-1.5946416752083332,As6Pb4Br2O12,mp-1192209
2.9748,-1.815624579993843,Cs4Ho4Si4S16,mp-1193331
1.0897,-1.9800291477678564,Ba4Gd8Se16,mp-1194410
1.8013,-0.9457505653714512,Rb4Sn6Sb4S20,mp-1194540
1.4864999999999997,-1.1850252462187505,K8Cd4Sn4S16,mp-1194826
1.3864,-1.0191517296629555,Cs8In8Hg8S24,mp-1194853
2.8307,-2.9756295714166665,Ca8Al8Sn8O36,mp-1196891
2.3286,-2.010576296111112,B4Mo2Pb12O24,mp-1196917
2.1985,-1.3132149547812502,K6Ta4Cu6S16,mp-1197797
4.3759,-3.2847763694111105,K4Na4Nb4O4F20,mp-1198462
1.6764,-1.6555198752604168,Dy8Ag8S16,mp-1200233
2.9227,-2.7059744691944454,K4Ta12Te8O48,mp-1200554
1.1171000000000002,-2.1465630202845385,Cs6Zr14Mn2Cl40,mp-1201250
2.3472,-1.724117127059999,Fe7Sb10Cl8O18,mp-1201515
3.0154,-3.676431644898206,Gd16B4Cl4O28,mp-1201615
3.3791,-2.8154422077738097,Na2Pr6Ge8O26,mp-1202169
2.8427,-2.1264397469078946,Zr4Te8Br4O22,mp-1202377
0.09879999999999978,-0.31759293886718754,Hg6Pd16Se18,mp-1202782
2.4496,-3.5507649828330003,Ba4Ca2V4Co2F28,mp-1203415
1.4330999999999998,-3.715793616833461,Ba40Cr24F144,mp-1204444
3.2202,-1.1821434736781609,Cs24Zn12I48,mp-1204449
1.1685,-1.6289423195891208,Ba4Y2In2Se10,mp-1205397
0.7190999999999999,-0.7929916680459768,Cs2Tc1I6,mp-1206848
0.9278,-0.9705988016666668,Zr12Ge2I28,mp-1207495
0.03329999999999966,-3.3690760626315788,Tb5Re2O12,mp-1208421
2.9272,-1.783065440073892,Rb6Sc4Br18,mp-1209523
3.4763,-1.9342091160237072,Rb8La4Br20,mp-1209612
2.4744,-3.5493558482377785,Na4Sr4V4F24,mp-1210039
3.786,-2.6686176083333333,Li2Tb2W4O16,mp-1211005
6.4923,-3.629259170114,K6Ho2F12,mp-1211714
3.4730000000000003,-2.377667352625,K16Mg8Ge8O32,mp-1212053
3.0974,-1.527627140063572,Li12Y4N24O72,mp-1212171
2.7962,-3.461734909204546,Ho6Sb2O14,mp-1212301
3.0498,-2.6592794205128216,Gd4Hf4Mo14O56,mp-1213333
3.2994000000000003,-2.2135376003596727,Cs8Mn8Mo12O48,mp-1213801
2.9549,-1.7244713390476196,As6Pb10Br2O24,mp-1214749
0.2264999999999997,-2.3336897084263644,Yb2Mn3Sb3O14,mp-1215911
2.3388,-1.9604634355,Tl2V6Cd8O24,mp-1216804
2.6770000000000005,-2.1758458800000016,V4Si2Pb10O24,mp-1217159
2.0215999999999994,-1.9929412189945657,Pr6Mg1Ge2S14,mp-1219872
1.6057999999999997,-0.937760619568452,P4Rh4S4,mp-1219924
1.3169999999999993,-3.070036339750002,Nd4V2Fe2O12,mp-1220528
3.4205,-2.5832570726666666,Na1Nd1Mo2O8,mp-1220980
2.1567000000000003,-2.633100198055199,Na1Cr12Si8Cl1O28,mp-1221145
0.9486000000000004,-0.6550167387792211,Na8Sr4Si2P8,mp-1221153
2.1917000000000004,-2.013247396041667,Li4Co1Te1O6,mp-1222462
1.1425,-2.53331044375,La2Co1Ni1O6,mp-1223259
3.5361,-3.2864729623863638,La7Ta3W4O30,mp-1223362
5.4671,-2.303773598758462,K1Na3Al12H24S8O56,mp-1224323
1.1120999999999994,-3.06076946175,Ba6Nd2Y1Mo3O18,mp-1228132
2.1283000000000003,-2.8939785762500003,Ba2Ce1Pb1O6,mp-1228392
7.5543,-3.950420292043333,Ba4Be4F16,mp-12431
0.7075,-0.8920628564760001,Ba6Sb2N2,mp-12814
3.5872999999999995,-3.528136276000001,Ba2La1Ta1O6,mp-13055
0.09719999999999997,-0.8561733925,Sm1Sn1Au1,mp-13305
0.0064000000000001825,-0.3267449298333333,Na4Cd4Sb4,mp-13459
0.9679,-2.0622064448611117,Cd6Si2O10,mp-13820
0.09439999999999847,-0.6435877303571429,P12Ir4,mp-13853
1.1684,-1.2926556021428577,Hg4Ge2O8,mp-13995
0.114,-0.3255854735000001,K6As2,mp-14018
1.0893000000000002,-0.9698901548412704,Ba32Si8P32,mp-14214
2.5520000000000005,-2.1343551031875,K8Ge8Sb8O40,mp-14352
1.3441999999999998,-1.2677791797203946,Ba4Re12S22,mp-14406
2.3241,-0.3959359369399991,Na2Ge4N6,mp-14433
2.1295999999999995,-2.3382839505,Ca12Zn12Te8O48,mp-14778
1.0065,-0.6478412222968751,K2Pt4Se6,mp-14796
2.1358,-2.0503010774062496,K8Sn8As8O40,mp-15107
2.9764,-2.1845615719926474,Na6S2O9,mp-16180
2.1551,-0.9204020011437504,Na12Si4Se14,mp-16961