band_gap,formation_energy_per_atom,full_formula,task_id
0.9178999999999999,-0.8362775966666666,Sr6Si4As8,mp-11677
0.3299000000000003,-1.9442803577678578,Pr4Eu2Se8,mp-1173369
0.0,-0.5000193233333334,Li1Y1Ga4,mp-11743
0.0,-0.9155954333333334,Ho4Sn4Pd4,mp-11764
2.1401,-1.934743733346691,K3Na8Fe1H12S6N2O36,mp-1181575
0.0,-0.5494538824999999,Al1Cu1Rh2,mp-1183191
0.0,-0.2753965637499993,Ho1Lu1Cu2,mp-1184891
0.0,-0.6484209174999993,Lu2Cu1Pd1,mp-1185442
0.0,-0.23841824749999985,Mg1Sc2Hg1,mp-1185964
0.0,-0.23277314374999847,Nb2Mo1Os1,mp-1186205
0.0,-0.20287872000000107,Nb1Ga1Os2,mp-1186222
0.0,-0.020934879999999545,Pd1Pt3,mp-1186450
0.0,-0.5396395681250006,Pm1As3,mp-1186534
0.0,-0.3819858493749999,Pm1Y1Tl2,mp-1186675
0.0,-0.4291162180357144,Yb3P1,mp-1187909
0.0,-2.7584318332500004,Li2Sm4Ir2O12,mp-11904
0.0,-0.3340779560000001,Ba2Sn12Ru6,mp-1190471
0.0,-0.23978924999999998,Ta4Te16Os4,mp-1190784
0.0,-0.6612633229166663,Sc16Pd8,mp-1190862
0.0,-0.7306715000000003,Tb12Si8Ni4,mp-1190904
0.0,-0.7674932478571437,Y2Ni12P7,mp-1191078
0.0,-0.6329219883333336,Pr12Co4Ge8,mp-1191367
3.1844000000000006,-1.8420906372321428,Ba4Te16O36,mp-1195016
0.0,-2.4166189868890324,Ag6Sb8F48,mp-1195261
2.1803,-2.4732231432330836,Sr2Fe2Ni4P6O24,mp-1195488
0.0,-0.2358611104545451,Ba4Co8Sn32,mp-1195776
0.0,-0.8426435869444444,Er20Ge16,mp-1195860
2.1818999999999997,-0.9683958748567045,Zr10Si12H72C24Br40O12,mp-1196506
5.1726,-0.24375524580000002,Li6Mg2Zn10B30H120,mp-1197046
0.0,-0.467650835833333,Ca12Cu12Ge12,mp-1197254
0.0,-0.6584959955769224,Sm8Ge18Ir26,mp-1197262
0.0,-0.1216054071413048,K32Na18Tl36Cd6,mp-1197369
0.0,-0.8141871950000004,Er42Rh28,mp-1198715
0.0,-0.4766848526851864,Sm4B16Ru16,mp-1199012
3.6856000000000004,-1.6871081000337504,Zn4Sb8Cl8O12,mp-1199855
0.0,-0.5331417379166664,Sc12Mn12Ge24,mp-1200195
0.0,-0.6286107872727269,Sc16B48Rh68,mp-1200575
2.4423999999999997,-0.4991745475080481,Sb4H36C6I18N18,mp-1202009
0.0,-0.6136496474999996,Zr8V12Ge16,mp-1202025
0.9055,-0.40808248787233203,Rb4Na32Ga12P24,mp-1202177
3.9613,-2.529206242222222,Li4Zr8As12O48,mp-1202818
0.0,-0.2981848880357144,Gd2Mo2C3,mp-12039
3.4949000000000003,-3.5145609049999997,Ba2Nd1Ta1O6,mp-1205600
0.0,-0.7643175844444438,Pr3Sn3Ir3,mp-1205817
0.0,-0.7133068066666676,Zr6Te2Pt1,mp-1205985
0.0,-0.24459002975000033,Ce1Ru3C1,mp-1206127
0.0,-1.0184756496031753,Ti3Mn3P3,mp-1206854
0.0,-0.10129978312500043,Mn1Cu2Ge1Te4,mp-1206870
0.0,-0.6109578729999996,La2Cu2I1,mp-1207003
0.0,-0.48703510785714293,Y3Ga9Cu2,mp-1207797
0.0,-0.8617541316666664,Tm8Si12Pd4,mp-1208008
0.0,-0.690475515714286,Tm4Ga18Rh6,mp-1208059
0.0,-0.22785770999999855,Cr1Ir3,mp-12083
0.0,-0.31454100632075427,Tb12Al86V8,mp-1208556
0.0,-0.4233883933333331,Ta4Co4As4,mp-1208576
0.0,-0.5749367500000001,Pr4Sn10,mp-1209313
4.961,-2.4834857228094482,Rb12Er4Cl24,mp-1209416
1.1481000000000003,-1.5743555483125797,Rb4La2Ta12Br30O6,mp-1209666
0.0,-0.9396797338888889,Pr6Hf2Sb10,mp-1209778
0.0,-1.4915624064285713,Pr12Pt4Br12,mp-1209785
0.0,-0.5933460252525254,Sc50In2Ir14,mp-1210294
5.4526,-1.999175254934286,Na8Be4Cl16,mp-1210352
0.0,-0.3739267866666667,Lu12Co4Sn2,mp-1210568
0.0,-0.1108543338596498,Pr12In1Co6,mp-1210767
0.0,-1.4412520829999997,La2Sb1I2,mp-1211238
7.3892,-3.9028883455711108,K2Y2Be2F12,mp-1211247
0.0,-0.9880013256400006,La10Pb6Cl2,mp-1211404
0.9927000000000001,-0.969592108,K4Fe4Br16,mp-1211520
0.0,-0.8221119193939395,Ho10In8Pt4,mp-1212246
0.0,-0.34821549576923105,Er2Al20Fe4,mp-1212845
0.6176000000000004,-2.4146623895375,Eu8Tl4Cl20,mp-1213054
0.033600000000000074,-1.6960966665175001,Cu2Pd2F12,mp-1213075
0.2824,-2.1117520972055135,Cu2Ag4P8O24,mp-1213222
0.0,-0.2617313431481484,Dy12In2Co4,mp-1213291
0.0,-0.6307334724999999,Ca4Zn4Pd4,mp-1213948
0.0,-0.3919206673333335,Ca4B16,mp-1213975
0.0,-2.8623442673863653,Ca3La2Sb3O14,mp-1214026
0.0,-0.7385575818750016,Zr1Ta1C2,mp-1215219
0.0,-0.1585377216666678,Zr6V8Fe4,mp-1215874
4.8168999999999995,-4.286351467873182,Y14O12F18,mp-1216198
0.0,-0.6597007154279992,W4N6,mp-1216242
0.0,-0.014779903333334232,Ti1W1,mp-1216621
0.0,-0.39626643076923074,Tm1Al7Fe5,mp-1216685
1.2881,-1.1321328503125005,Tm2Cu6S6,mp-1216740
0.0,-0.8908579785069447,Ti1V1Se4,mp-1216764
1.2913,-0.9494633186490233,Ti4Tl6P10S36,mp-1217446
0.0,-0.46543832249999967,Sm1Al3Cu1,mp-1219105
2.8594999999999997,-3.806891589962123,La16Ti16O56,mp-12192
0.0,-0.09245508025000007,Sb28Mo9Ru3,mp-1219530
0.0,-0.3874069061666667,Mn5In4Sb1Pd10,mp-1221408
0.0,-0.7217949058333334,La2Ga2Si2,mp-1222823
4.9633,-3.6984834171590917,La4Ho4Si8O28,mp-1222979
0.0,-0.8769645542857144,La8Sn2Bi4,mp-1223150
0.0,-3.9255986254600006,K1Ce1F4,mp-1223451
3.4923,-1.8303789089000007,K2As6Pb8O24,mp-1223607
0.0,-0.619872313333334,Gd2Al2Si2,mp-1224619
0.0,-0.6876696208333334,Er2Cu1Si3,mp-1225070
0.0,-0.6976357921428582,Er2As7Rh12,mp-1225165
0.0,-0.752439685833334,Dy6Ni2Pd4,mp-1225399
0.0,-2.5909673555681807,Eu4Fe2Sb2O14,mp-1225440
0.5984000000000003,-3.0463914392700002,Er8Mn3Mo5O28,mp-1225972
0.0,-0.49094119717261925,Cr4Cd1Ag1Se8,mp-1226280
0.0,-0.33972866166666665,Ce1Ga2Cu3,mp-1226676
1.9534000000000002,-3.228261421596,Ca2La2Mn2Nb2O12,mp-1227173
2.1048,-0.9585143916238081,Cs4Re8Os4Se16Cl12,mp-1228026
0.0,-0.4002004434722224,Ba5Mg18Ge13,mp-1228121
2.9899999999999998,-3.2550392402817154,Ba4Nb2P4O18F2,mp-1228528
0.0,-0.8212281656249996,Al3Si1Pd4,mp-1228909
1.001,-2.442370276482989,Cs2Co2Ni2F12,mp-1228915
1.2835999999999999,-1.2715025526388894,Ba9Bi18S36,mp-1228976
2.4158,-1.8281579346120695,B6Pb20Br6O26,mp-1229254
0.0,-1.353836870729167,Eu2Se4,mp-1232230
1.5451000000000001,-1.0917070227011496,Cs2Tb2Cd2Te6,mp-12495
0.0,-0.3918269675000001,Pr1Tl1,mp-12599
0.0,-0.7512828771428569,Er6Fe2Si6,mp-12837
0.0,-0.397278071666667,Ho1In5Rh1,mp-12940
4.021599999999999,-2.5439911472871435,Tm2C1N2O2,mp-13039
0.0,-0.6385960322916672,La3Ni2Sn7,mp-13093
0.0,-0.6573999330555557,Er3Al9Ni6,mp-13490
4.755800000000001,-2.5011656693638393,Zn4P16O44,mp-15438
0.30799999999999983,-1.0140600626953127,Hf2Se6,mp-15622
1.6735000000000007,-3.1497218475000004,Pr2Te1O2,mp-16032
0.0,0.0,Yb1,mp-162
0.0,-0.2052258584759997,Fe3Pd1N1,mp-16334
2.3655999999999997,-1.839419876250001,Tb16Si12S48,mp-16402
0.0,-2.6619043920454546,Sr6Mg2Rh2O12,mp-16984
0.0,-0.2204452649999998,Ca1Zn5,mp-1734
3.0332999999999997,-1.3779596430769236,Ni4Te6O16,mp-17360
0.0,-0.7687367083333321,Er2Rh4,mp-1762
3.4186,-2.0694954548499997,K8Li12Ga4O16,mp-17774
2.4618,-2.6969644145060006,Ta4Mn8O18,mp-17993
0.028000000000000025,-2.8733531598668836,K4Yb4P8O28,mp-18184
3.1656000000000004,-2.4035707462327593,Cs12Si4O14,mp-18315
0.0,-0.25955274000000017,Ni2As4,mp-19814
0.0,-0.26171691633333294,Ta12Te48,mp-202
0.9406000000000001,-2.107130784126667,Pd2Pb2F8,mp-20805
0.0,-2.975384724442,Nd4Mn4O12,mp-20852
0.0,-0.4921819188888901,Ti1Ni1Sb1,mp-20952
0.0,-1.5239911474166667,Pr3In1O1,mp-21135
0.0,-0.9254001466666656,Er4Ge4Ir4,mp-21153
0.0,-0.6632990565,Sm1Ge2Ru2,mp-21224
2.4067,-1.7048542780000013,Co2C2O6,mp-21434
0.0,-0.41155426222222263,Y3Ag3Pb3,mp-21505
0.0,-0.5222805239285719,La12Ga8Ni8,mp-21529
0.0,-2.5376655244999995,V16O24,mp-21579
0.0,-0.5554295587499983,Ta22Fe4Se16,mp-21656
3.4667000000000003,-3.126201875624999,Ca12Sc8Ge12O48,mp-21989
1.0237999999999996,-2.1274640750462956,Fe24B8O40,mp-22223
3.4179999999999997,-3.6865194821726677,Na1Zr2Fe1F11,mp-22242
3.6665000000000005,-2.440248595275976,P8Pb8O28,mp-22325
0.0,0.0,Bi2,mp-23152
2.5374,-0.47739900833333326,Hg2Br4,mp-23292
0.0,-0.2997320062500002,Y2Cd6,mp-2349
2.5239000000000003,-2.43350256154625,La4Cr4H4O20,mp-24050
4.0855999999999995,-1.4992226524360006,Re2H8N2O8,mp-24128
0.0,-0.786642312413333,Dy1H2,mp-24151
3.7215999999999996,-1.267446638930667,Fe2H16Br4O8,mp-24537
0.0,-0.8812082449999998,Er1Au2,mp-2466
0.0,-0.638216783448,La4Ni4Sn4H8,mp-24805
7.6168000000000005,-4.440404155684167,Nd6F18,mp-254
0.9645999999999999,-1.7353797935624997,Na6Bi2O8,mp-27345
2.9716,-1.7989882211973793,Cs4Sn4Cl12,mp-27394
0.0,-0.11589463071428595,Mg4Ga10,mp-27668
0.020700000000001495,-0.3712277755476199,Fe8Mo4P48,mp-28104
4.5391,-2.4940960738063906,Bi4P8O26,mp-28541
2.5736999999999997,-0.22126816327199988,K4Si4H12,mp-28695
1.8007,-2.3326869972499993,La4Au4O12,mp-28853
0.0,-0.6683816158333338,Lu4B8Ru4,mp-29239
1.7887,-1.3997007428177395,Rb16Cu20Cl36,mp-29449
2.1635999999999997,-0.6220143282260004,Br4N4O12,mp-29526
1.5857,-2.217691874189091,Eu2Al4Cl16,mp-30022
0.0,-0.15374592531249998,Zn24Au8,mp-30424
0.0,-0.2549560512500002,Tm2Cd6,mp-30502
0.01969999999999983,-0.5276996044318181,Ta4Se16I2,mp-30531
0.09870000000000001,-0.25562350499999953,Sr1Ga1Cu2,mp-30580
0.0,-0.09764918055555505,Mg1In1Cu4,mp-30587
0.0,-0.7911099138888894,La20Sn16,mp-30757
0.0,-0.4857377525000004,Ta1Pd3,mp-30836
0.0,-1.1278236279999994,Tb1Si2Rh2,mp-3097
0.0,-0.8299510974999995,Pr2Si4Ru2,mp-31083
0.0,-0.9346490090000004,Pr1Si2Pd2,mp-3278
0.0,-0.4484974174999996,Sc1Al1,mp-331
0.9024000000000001,-2.1285482774999998,Cr2Sb2O8,mp-33857
0.0,-0.6731222118055555,La1B2Rh3,mp-3465
6.397399999999999,-3.7292355227829654,Rb1Ca1F3,mp-3654
2.6648999999999994,-3.040477261931819,La4Sn4O14,mp-4086
0.0,-0.7574650254999995,Nd1Co2Si2,mp-4228
0.0,-1.037381211875,La2Si4Pt2,mp-4283
0.0,-0.17328485500000035,Nb1Ru1,mp-432
0.0,-1.1876806382812504,Ta2Sn2S4,mp-4538
0.0,-0.5545803949999999,Li1Ga2Rh1,mp-4913
2.0604999999999998,-1.8589945764870695,Rb4Cr8Fe4O32,mp-504649
0.0,-0.5766280494642848,Ta12Al8Co4C4,mp-510486
3.4284,-3.28163799525,Ba6Sr2Nb4O18,mp-540949
1.8631000000000002,-3.166074433472223,Ba4Y8Co4O20,mp-541574
1.3229000000000002,-0.46704790264409785,K8Ag4As12Se24,mp-541915
0.0,-2.578209908857143,K6Eu2V4O16,mp-542181
4.4908,-1.2194595010950007,Na1C1N1O1,mp-546500
0.0,-0.6008468529999995,Er1Co2Ge2,mp-5497
1.9043999999999999,-2.3435540042575003,Sr2Fe2Se2O1F2,mp-550944
0.0,-1.3178330873076918,Cu6As4O16,mp-554614
4.331099999999999,-1.941332137968751,Sr4Zn4Se8O24,mp-555691
0.0,-2.510972344039152,Rb2Eu2S4O16,mp-556821
0.0,-3.4819470066666667,Ce2Nb2O8,mp-557564
2.9652,-3.021893647632902,K2Rb1Mn2F7,mp-558227
1.8350000000000002,-1.8975139532976193,V2Ag4P2O12,mp-558255
1.1945999999999999,-3.006187112250001,Tm6Fe6O18,mp-558400
2.978,-2.1180437268941574,Rb4V12Cd12O44,mp-558909
0.0,-1.3500913465555553,K6Pd4O8,mp-560563
0.0,-0.9751972703571425,Nd1Co2P2,mp-5622
0.0,-0.5805048433333333,Ba1Sn2,mp-567510
0.0,-0.8014266138461542,Ce8Ge16Pt28,mp-567664
0.0,-1.2644879969374998,La14C6I20,mp-567729
0.0,-0.6600931080000002,Ba1Ni2As2,mp-568280
0.0,-0.09178914353151009,Cs6Hg81,mp-568335
0.0,-0.5061952016666665,Ca3Cd3Sn3,mp-568695
0.0,-0.27589445357142833,Mg8Co48As28,mp-569003
0.0,-1.040804820857143,Dy1P2Ru2,mp-569089
1.4226999999999999,-0.9079806699674078,Ga12Bi48Cl48,mp-569237
0.0,-0.38096085472222185,Cr8B4,mp-569424
0.0,-0.9152957409999999,Ho1Si2Ru2,mp-5720
2.2944000000000004,-1.2451931800937501,K6Ta4Ag6S16,mp-573202
0.0,-1.513797713571428,Pr1P1,mp-601
0.0,-0.9787875083333325,Zr6Ga6Pt6,mp-601253
1.8910000000000002,-1.8329794960324999,Na1Fe3H6S2O14,mp-604429
0.0,-0.441046349666667,La4Ga24Ni2,mp-604613
0.0,-0.680798017499999,Ce8Zn8Rh8,mp-607738
0.0,-0.1519355043956045,K23Na8Cd12In48,mp-633668
0.0,-0.47118685166666696,La4Ga24Pd2,mp-638226
0.0,-0.6306157525000003,Tb8Mn12Si20,mp-639228
0.0,-0.6820851684722223,Dy7In1Co4Ge12,mp-641778
3.9361999999999995,-2.0805167843425005,Ba4H4I4O4,mp-643384
0.0,-1.172785352256944,La8B4C2I10,mp-672196
0.0,-0.9145458668452381,Ta48Br120,mp-680077
0.0,-1.7475684593018026,Ti13S24,mp-684731
3.0656,-3.562156336312499,Na2Sm18Si12S4O48,mp-686543
0.0,-2.5667567006249996,Ca8Y4Fe12Sn8O48,mp-694869
2.2582999999999998,-2.6792544537830696,Ti2Cd2Fe2P6O24,mp-695054
5.2718,-1.8916229813533338,Na4H4C4O12,mp-696396
0.8817000000000004,-1.617465025781251,Sc1Cu1S2,mp-6980
2.632,-0.6185211668124997,Li16H8N8,mp-699284
2.4849999999999994,-1.2845975210909097,Ni34As12O64,mp-705872
4.0671,-2.052033654132406,In2B2P4H10N2O18,mp-752709
0.0,-0.45581130214285637,Nb6Te8,mp-7564
2.4200000000000004,-1.6966956246428577,Fe4As8O16,mp-756549
1.9914,-1.6936805841250007,Na40Fe8O32,mp-760318
0.0,-1.2037314593749997,Ta2C1S2,mp-7814
4.953200000000001,-3.1320262361904763,Ba2Ca1B6O12,mp-8271
0.0,-0.4991776095833327,Mn4B4,mp-8365
0.04499999999999993,-0.9990650512499997,Li3Nd1As2,mp-8406
5.8537,-3.7558126088329997,Ba4Ca4Ga4F28,mp-8416
0.0,-0.5222121237500001,Li1As1Pd2,mp-862321
0.0,-0.36504131416666663,Sc2Ag1Hg1,mp-862702
0.0,-0.22685890625000127,Sc1Tc2W1,mp-862725
0.0,-0.06359600750000105,Tc6Os2,mp-862779
0.0,-0.3336790187500007,Li1Sc2Os1,mp-862887
0.0,-0.62912448334,Pm1H3,mp-862910
0.0,-0.4018082245833332,Ho2Cd1In1,mp-863651
0.0,-0.5363225062499994,Pm2Cd1Sn1,mp-863655
0.0,-0.6022150474999997,Hf2Mo1Ir1,mp-864684
0.0,-0.2890501600000004,Mn2Pt1Rh1,mp-865032
0.0,-0.2142349511249999,Na1Sr2Tl1,mp-865128
0.0,-0.6812055287499996,Hf1Cd1Rh2,mp-865174
0.0,-0.23550356749999946,Li2Gd1Tl1,mp-865349
0.0,-0.8095343012499994,Lu10Rh6,mp-865778
0.0,-0.05325505666666667,Li1Mg2,mp-865939
0.0,-0.050270716249999126,Tl1Cd1Rh2,mp-866188
0.0,-0.3381574574999999,Li1Zn2Ir1,mp-867253
0.0,-0.6735339624999988,Hf2Tc1Ru1,mp-867327
0.0,-1.3804374754375004,Nb6Ge2S12,mp-867739
1.8014000000000001,-2.4823870979545464,Ba8Pt2O12,mp-8727
0.0,-0.29143516642857137,Ta2Ni2Te10,mp-8998
0.0,-0.9870455716666662,Dy4Ge4Rh4,mp-9529
0.0,-0.31711260999999996,Tm12Ga2Co4,mp-971844
0.0,-0.40711756550000044,Tb8Re4C8,mp-972246
0.0,-0.5280871907142861,Tm2Ni12As7,mp-972759
0.0,-0.8025117844642858,Li1Sm1Cu2P2,mp-973019
0.0,-0.22332402500000104,Mg1Sb1Ru2,mp-977575
0.0,-0.7259047854761902,Pr2Co12P7,mp-978102
0.0,-1.2165740840476194,Yb1P1Pt1,mp-9828
0.16320000000000023,-0.27853233437500036,Li2Pm1Ga1,mp-983460
2.8293,-1.9620327523582994,Rb2Li1In1Cl6,mp-989583
0.0,-0.5962993187500003,La2Ga2,mp-1002133
0.0,-0.7676211985714284,Sm2Co12P7,mp-1005690
0.0,-0.2551460549999991,Sc1Cu2,mp-1018149
0.27090000000000014,-3.283142201925,K8Ce4Al4Si16O48,mp-1019774
5.5005,-2.0875494142958346,K4B4S16O56,mp-1019805
4.7222,-2.9917442583750002,Li12Al4Si4O20,mp-1020023
0.0,-0.44622017428571426,Lu1Ga5Co1,mp-1025155
0.0,-0.5565415093537415,In1P1Pd5,mp-1025161
0.0,-0.5656558283928571,Nd2Re2Si2C1,mp-1025210
0.0,-0.4571435445918368,Ga1P1Pt5,mp-1025270
0.0,-0.37268497887755103,Hg1P1Pd5,mp-1025302
0.0,-2.3403970787157147,Ce2C1N2O2,mp-1025352
0.0,-0.6438913943750002,Sm2Ga4Ni2,mp-1025423
0.0,-0.7020042208333331,Pr1Pt5,mp-1037
0.16959999999999997,-1.3106087025000004,La4Te4As4,mp-10383
0.0,-0.30363824833333314,Gd1Cu4Au1,mp-1072041
0.0,-0.37490278166666613,Gd2Zn4,mp-1076988
0.0,-0.2876023161111121,B4Ru2,mp-1077
0.0,-0.7267761016666666,Gd2Co2Si2,mp-1077133
0.0,-0.3171190466666663,Tb1Cu4Au1,mp-1077752
1.8678999999999997,-1.6944511653640462,Cs2Ag1Bi1Cl6,mp-1078258
0.0,-0.4406401321666678,Y2B4C4,mp-1078866
0.0,-0.8862136387499997,Er2Te6,mp-1078991
2.4764999999999997,-0.4462118949025,La1Al1H6,mp-1079283
0.0,-0.7457583472222227,Tb3Zn3Pd3,mp-1079386
0.0,-0.679318842,Tm4Cd2Ge4,mp-1079644
0.0,-1.087638342222222,Er3Sn3Pt3,mp-1079826
0.0,-0.7928948163888884,Hf3Re3Si3,mp-1079831
0.0,-0.7775526130000003,Ca2Ge4Pt4,mp-1091390
0.0,-0.27353572638888857,Sm3Mg3Ag3,mp-1095154
0.0,-0.917301009166667,Nd4Sb4Au4,mp-1095305
0.0,-0.883470177499999,Zr4Ge4Ir4,mp-1095472
0.0,-0.7438455383333332,Y4Zn4Pd4,mp-1095522
0.0,-0.3260080327083337,Nd3Ni9,mp-1095561
0.45730000000000004,-1.446897043697917,Y4As4Se4,mp-1095603
1.9279000000000002,-1.3529693449519997,Li2Hf1N2,mp-1097065
0.37490000000000023,-0.3989769578645834,Bi4Rh4Se4,mp-1101765
0.6322999999999999,-0.24315696374999973,Sn1Bi4Te7,mp-1101917
0.0,-0.7959620091666668,Dy4Ni4Ge4,mp-1102455
0.0,-1.1163013050000004,Er4Ga4Pt4,mp-1102669
0.0,-1.1894442008333332,Lu4Al4Pt4,mp-1102691
0.0,-1.1176697408333343,Tm4Ga4Pt4,mp-1103049
0.0,-2.4602830048697917,Dy5S7,mp-1103125
0.0,-1.1530001339285718,La6Pt8,mp-1104856
1.5277000000000003,-0.6314561300848212,Y2Tl2P4Se12,mp-1105136
0.12910000000000021,-2.038293398625,La1Cr4Cu3O12,mp-1106068
0.0,-0.6101373955,Tb14Rh6,mp-1106174
0.0,-0.5847933300000001,Be1Pd1,mp-11274
0.0,-0.29856780499999996,Er1Cd2,mp-11296
1.5073999999999996,-2.3258884858163276,Al4Fe13Si2Sb2O28,mp-1133344
0.0,-0.17457064499999989,Mg1Cu1Sn1,mp-11361
0.0,-0.8844099787500008,Hf4Pd12,mp-11453
0.0,-0.4735868074999998,Pr1Hg1,mp-11469
0.0,-0.1851817662499995,Er2Mg1Os1,mp-1184112
0.0,-0.2537721725000006,Er2Cd1Os1,mp-1184134
0.0,-0.3221778308333332,Li2In1Hg1,mp-1184978
0.0,-0.40948983875000033,La1Pm1Tl2,mp-1185094
0.0,-0.48771644854166674,Pm1Y1In2,mp-1186707
0.0,-0.3033713987500004,Sc2Tl1Zn1,mp-1186959
0.0,-0.3424981050000002,Sc2Tl1Hg1,mp-1186961
0.0,-0.24441534583333535,Ti2Al1W1,mp-1187418
0.0,-0.5864048149999999,Yb1Y1Hg2,mp-1187505
0.0,-0.5768393787500001,Yb1Ho1Hg2,mp-1187616
0.0,-0.5767690250000008,Zr1Mn1Rh2,mp-1188022
0.0,-0.541917702500001,Zr1Ga1Ru2,mp-1188059
0.0,-0.459713390208333,Tb6In10,mp-1188416
0.0,-0.5921111364583336,Tb4B8Ru4,mp-1188601
0.0,-0.4700165605555561,Pr4Al6Ge8,mp-1189097
1.1419000000000001,-0.9709420250000002,Sr6Al4As8,mp-1189305
0.0,-0.3702223222222219,Ho12Ga2Ni4,mp-1189374
0.0,-0.6523802494444442,Tm3Al9Ni6,mp-1190028
0.0,-0.6124603299242427,Dy6Re2B14,mp-1190970
0.0,-0.5077580313043477,Y4Ga16Co3,mp-1191866
1.9821,-3.2209237122444834,Cs4V4F16,mp-1192215
0.0,-0.4851257042187496,Hf18Re8S2,mp-1192774
0.0,-0.5547238209722233,Gd16In4Ir4,mp-1192794
0.08050000000000002,-1.2576529209692309,Fe2W4Cl20,mp-1192985
0.0,-0.7166209044827588,Ce2Si6Pd21,mp-1193751
2.6306999999999996,-2.600930733214286,Be4Cr8O16,mp-1193887
0.0,-0.5994980317241381,Zr6Ga16Ir7,mp-1194195
0.0,-0.43686803568965515,Sc3Ni20B6,mp-1194311
1.4436,-1.931511579910715,Sr4Lu8Se16,mp-1194337
2.9593,-2.890551266460785,Na4Lu4B4Te2O20,mp-1195028
0.0,-0.47940366574999943,Yb6Ge26Ir8,mp-1195984
0.0,-2.777535254550435,Ba8Sm6Cl32,mp-1196927
0.0,-0.0992131490686277,Pr8Co56B4,mp-1197003
1.2798999999999998,-1.0966655683040005,Al8Bi28Ru4Br8Cl32,mp-1197319
3.7897000000000003,-2.9275752068518526,Mg20Sn4B8O40,mp-1198031
0.0,-0.3580863768749998,Ba4Ge8Au20,mp-1198185
2.1193,-1.1726798530842861,Zr8Hg32P16Cl48,mp-1200713
0.39449999999999985,-2.743918242595188,Sr2Mn6P6O24,mp-1201132
0.0,-0.6512183552380949,Ho22In12Ge8,mp-1201298
3.1933999999999996,-2.2874423267771427,B6Pb12O18F6,mp-1202733
0.0,-0.8481874207142863,Yb6Co18P12,mp-1203041
0.0,-0.8900266548809523,Ce5P12Ru19,mp-1203369
0.0,-2.488542987820946,Pr4Tm11S22,mp-1203583
4.5999,-3.0959188484753692,Ba8Na2Al4B16Cl6O36,mp-1204585
5.3415,-1.491632461525151,In4H48N12F24,mp-1204788
0.0,-0.4865180577777777,Dy3Mg3Ga3,mp-1205763
0.0,-0.6003691872500013,Sm2Si2Ru4C2,mp-1205773
0.0,-0.6784086477777775,Tb3Mg3Au3,mp-1205820
0.0,-0.84234718,Y2Si4Ni2,mp-1206088
0.0,-0.4745681461666663,La1Ag2Ge2,mp-1207066
0.0,-0.4335961386666668,Tb1Fe2B2,mp-12075
0.0,-0.31949280745283043,Tm12Nb8Al86,mp-1208184
0.0,-1.7980509319871794,Ti5S8,mp-1208223
0.0,-0.8637190739285714,Tb4Al18Ir6,mp-1208552
0.0,-0.24694810849999982,Re12Te16Br12,mp-1209284
3.4396000000000004,-2.6788064271120695,Rb2Er2W4O16,mp-1209367
0.0049000000000000155,-3.047653511664981,Rb4Al4Cu4F24,mp-1209376
0.0,-0.23148643333333338,Pr16Cd4Ni4,mp-1209942
0.9243999999999999,-1.4444183831507946,Na4Ag4Te20O56,mp-1210534
3.2998999999999996,-2.5967621617083325,K2Sm2Mo4O16,mp-1211306
4.8546,-3.365404204538333,K4Sr8Si16O40F4,mp-1211577
3.0921000000000003,-1.5309767354207133,Li12Dy4N24O72,mp-1211772
0.0,-0.29262173083333365,Ho12Co5Bi1,mp-1212429
0.0,-2.3109921299750003,K8Eu4Cl20,mp-1212510
0.0,-0.9503908538851815,Pr25Ni49P33,mp-1212765
0.0,-0.4279659466666672,Dy16Mg4Ir4,mp-1212923
0.0,-0.9037886488888892,Er10Si4Sb4,mp-1213158
0.0,-0.2134259046153849,Cr5Te8,mp-1213754
4.089,-0.2856447240142853,Ca2Ga2H10,mp-1213976
3.4718,-3.131451836694444,Al12Fe4Si4B4O36,mp-1214903
0.0,-0.21773796009765656,Al4Ag36Se24,mp-1214959
0.04249999999999998,-2.495643613618422,Ba20Ga4Ru8O44,mp-1215133
1.9098,-1.912790308875001,Cd12Fe8Ge12O48,mp-1215138
0.0,-1.2657604295769243,V20Ga1Ge4S40,mp-1217432
0.0,-2.6143144652499997,Sr2Pr2Fe4O12,mp-1218069
0.011700000000000266,-0.20406191297619036,Sr12Cd72,mp-1219283
0.0,-0.19309924437500037,Ni2Sb12Ru2,mp-1219954
0.0,-0.017496227500000572,Os1Ru1,mp-1220023
4.1983999999999995,-2.9929435556927277,K1Mg3Al1Si3H2O12,mp-1223564
0.0,-0.016037219999999408,Ir1Rh1,mp-1223919