band_gap,formation_energy_per_atom,full_formula,task_id
1.6323,-1.1453368889107145,K2Pr2Ge2Se8,mp-12012
2.5869,-2.1938445768719568,Hg4As10H12O4F62,mp-1201277
2.1159000000000003,-1.2438103246713368,Cs12Sb4S16,mp-1204783
3.0079,-2.8101000650000003,Pr4Sb4O16,mp-1205344
2.2041000000000004,-1.1100174649449999,Tl2Cl6,mp-1206058
1.7614999999999998,-1.7822449770249658,Rb2Li1Rh1Cl6,mp-1206187
0.9448999999999996,-2.62943293325,Tm4Rh4O12,mp-1207705
0.02700000000000013,-0.30196689283018857,Tm12Al86V8,mp-1208160
4.4703,-3.3082098192708336,Tb4Be4Ge2O14,mp-1208513
4.2860000000000005,-2.061948230980604,Rb4Sr8Br20,mp-1209189
4.9609,-2.4820110408094487,Rb12Lu4Cl24,mp-1209449
4.9979,-2.5221660014987077,Rb8Tm4Cl20,mp-1209452
4.9512,-2.4700889795594483,Rb12Sm4Cl24,mp-1209546
3.4239,-1.828954167853684,Pr4H24C12O36,mp-1209824
7.2714,-4.0572418895016655,Na2Li2Lu4F16,mp-1209991
0.8658000000000001,-0.4324441719841272,Nd8Si16P48,mp-1210127
4.1184,-2.047403103720508,Rb8Cd8Mo12O48,mp-1210143
1.0191,-1.595431907452857,Nb6Tl4Cl18,mp-1210200
0.2140000000000004,-2.5633875971654283,Na4Mn6P6O24,mp-1210501
3.1732000000000005,-2.791120828625001,Li12Tb12Te8O48,mp-1211213
1.9822,-1.477258598445,K2Sb2Cl12,mp-1211377
3.2743,-2.7927326710595235,K8Ti4Ge4P8O40,mp-1211716
3.1754999999999995,-2.3876478547222213,Ho2Ag2W4O16,mp-1212201
2.289,-1.096712335611251,Gd2Cl6O24,mp-1212754
4.5457,-2.68739255365269,Cs4Dy8Cl28,mp-1213680
1.4612,-2.1502705328784852,Cr2Ni2Ag4F14,mp-1213740
0.7004999999999999,-2.630060702094157,Ba4P8Pd4O28,mp-1214414
2.756,-2.9897866165833333,Ba3Nb2Ni1O9,mp-1214516
3.4728000000000003,-3.652172914375,Yb1O1,mp-1216
0.9449000000000004,-0.5807122988888894,Ti2Fe1Ni1Sb2,mp-1217120
1.4464000000000006,-0.2092670080729171,Tb2Si8B36C2,mp-1217512
3.1526,-3.682440873518519,Tb4Ta4Ti4O24,mp-1217522
0.4788000000000001,-2.31614653425,Sr2Pr2Co4O12,mp-1218091
2.0782,-3.253452169666667,Sr18Fe2P14O56,mp-1218733
1.1654,-1.8362848270833327,Sn3Te1Pb4O13,mp-1219089
1.2710999999999997,-3.09760822475,Sm4V2Fe2O12,mp-1219215
1.4823,-2.0153354284642404,Rb2Ti1Te3O12,mp-1219756
0.2445999999999997,-0.5399191755468742,Mn1Zn1Se2,mp-1221500
1.5727999999999995,-2.165957922031251,Li1Gd1S2,mp-1222370
0.0562999999999998,-0.4219641289283332,Li7Cu2N3,mp-1222572
0.036599999999999966,-1.321379548125,La7Co1I12,mp-1223204
1.854,-1.1041523368269237,La4Si4Pb2Se16,mp-1223272
3.4888,-1.8245045845625008,K1Na1As6Pb8O24,mp-1223483
2.1493,-3.487698517233333,La4Gd1Sc15B20O60,mp-1223571
1.1599000000000004,-1.5420052605041683,K4La4Sb4S18,mp-1223734
1.1338,-0.6262676863636362,K10Ba2Nb2As8,mp-1223953
3.051,-2.989839022909775,K8Sc8Mo4P8O48,mp-1225084
6.837000000000001,-3.759140526482988,Cs2Mg2Al2F12,mp-1225922
2.7892,-2.642690297634099,Cs2Nb2W2O12,mp-1225952
0.38649999999999984,-1.7500263468007669,Cs2Ge1Te3O12,mp-1226191
2.8621,-2.2049978787413798,Cs8Fe2Mo6O24,mp-1226269
0.3353000000000001,-1.4313529777678573,Ag6P2O8,mp-1229128
0.07610000000000006,-0.8968005290708695,Ag9Ge2N1O11,mp-1229182
1.2736999999999998,-0.8115337499657747,K1Ag2P1S4,mp-12532
3.5752000000000006,-2.633848031493056,Sn2B8O14,mp-13252
5.2365,-3.158724661182614,Rb8Be12Cd8F48,mp-13614
1.4852,-1.4172318231250003,K40Tl8O32,mp-14439
0.14040000000000052,-0.6814793022727279,Sr2As12Pt8,mp-14500
3.4744,-0.8423116915969041,Li56P8N32,mp-14712
3.341,-0.9351041454808331,Li56Ta8N32,mp-14753
5.3923,-2.8461000236607163,Pr4P20O56,mp-14817
3.4238,-3.7386266687500016,Pr6Ta2O14,mp-14964
4.0482000000000005,-2.8523721322231026,Rb8Sc8As8O32F8,mp-15865
3.9206,-0.8086411433785805,Rb12P24N44,mp-16107
0.08139999999999993,-0.4901923269999993,Lu8Zn10Ge12,mp-16190
2.6494,-2.7181848375833333,Ba6Mg2Sb4O18,mp-16978
2.7103,-2.214146225791667,Ti4As8O28,mp-17196
2.6711,-2.475937757222221,Ba4V4As4O24,mp-17264
0.00199999999999978,-0.6771663354999996,Sm9Rh6,mp-17391
0.08509999999999973,-0.5630754900000005,Ba8Li4Ge12,mp-17491
3.2856,-3.8776502916145836,La8Ti4O20,mp-18051
1.7876,-1.13833997525,K8Cd12S16,mp-18101
1.8520000000000003,-1.8001871170135466,Rb4Li4Zn8O12,mp-18422
0.7349000000000001,-1.985910905274286,Mn4Zn2O8,mp-18751
1.0282,-2.805701750294761,Sr10Cr6O24F2,mp-18859
0.4197000000000002,-1.7621866741671417,K4Mn4O6,mp-19148
2.0867,-2.381848831500001,K2V6O16,mp-19172
3.4015,-2.7459473804532024,K2Rb1Tb1V2O8,mp-19428
3.6201,-2.4233371495833325,Sc1Tl1Mo2O8,mp-19450
3.0264,-3.0533722558925005,Ba1Pb1F6,mp-19799
2.1577,-2.6125601072499998,Ca4Fe2Sb2O12,mp-20431
0.05289999999999928,-0.6886114372222233,Gd2Ti2Ge2,mp-20869
0.02340000000000053,-0.35401092973684234,Ca1Ni12B6,mp-21312
9.999999999976694e-05,-0.08977251785666596,In2N2,mp-22205
0.1720000000000006,-3.3771229123437494,Ce3Si3B3O15,mp-22225
0.4929000000000001,-2.716387673442001,Yb4Mn4O12,mp-22518
1.3011,-0.015455904999999603,Hg4P56Pb4,mp-22574
0.21199999999999972,-1.4135715268750002,In1Ag1O2,mp-22660
4.0726,-3.0606244482504765,Ba10V6Cl2O24,mp-23094
0.5522,-2.2967449793321433,Sb16I16F80,mp-23403
1.8478,-1.59635049284,K2Pt1Cl6,mp-23513
1.6244,-2.141682215947143,Ta4Bi16Cl4O32,mp-23602
5.1388,-1.5656582818509093,Al2H24Cl6O12,mp-23743
2.262,-1.4556774416236364,V2H24Cl6O12,mp-23749
3.0545,-1.2348330343981944,Ni2H4Se2O10,mp-23968
4.975899999999998,-1.0661702424991888,Ga8H144C24N72F48,mp-23984
4.1139,-1.39005861454,Ca2H2Br2,mp-24422
0.6307,-0.2278336966666667,As4Os2,mp-2455
6.1343,-1.7947033572715791,Al4H40N8O4F20,mp-24618
3.7499,-1.5622814018768425,Fe4H40N8O4F20,mp-24619
1.4702000000000002,-1.2708125046590908,Tl20Sb4O20,mp-27220
4.8422,-3.0137492122208087,Nb8Se4F56,mp-27312
2.7539999999999996,-1.2458237625689654,Rb4Cd4Br12,mp-27400
1.6203,-2.579756849118334,Ba8Mn4O12,mp-27443
1.66,-1.8792304314999997,Li40Tl8O32,mp-27483
2.2590000000000003,-1.8809961264558832,Na32Ga8O28,mp-27618
1.7341000000000002,-1.1722389955066663,Tl2Pt1Cl6,mp-27834
2.9019999999999997,-1.9139671873825,Na4Ta4Cl24,mp-28179
4.8518,-2.534345952123707,Rb8Pr4Cl20,mp-28275
3.6259,-1.2319184229581248,S4Cl8O4,mp-28406
0.9116,-0.8604773340486117,Na8Ti8Se32,mp-28566
0.041200000000000125,-0.3409728460408163,Na4Hg1P2,mp-28591
0.11789999999999967,-0.1281813089499991,Na4Li12Si24,mp-28612
1.1740000000000002,-1.4431913084314287,Cd6Cl4O4,mp-29297
1.8419000000000003,-2.2667442238461226,Ca3P1Cl3,mp-29342
0.4565999999999999,-0.5894736352604169,Ba4Ag32S20,mp-29682
0.6318999999999999,-0.19135755900000007,Tl4Te6,mp-29711
2.1177,-2.304344597194941,In4P2O10,mp-31232
2.8286,-3.2808703620277764,Gd4B8O18,mp-31369
0.00990000000000002,-0.3568246883750001,K8Sn4Bi4,mp-31486
0.1246999999999998,-0.21700958166666595,Li1Al1Si1,mp-3161
3.8719,-3.708269764761905,Ba6Sc12O24,mp-3564
5.6771,-3.4730257511904754,Nd4P4O16,mp-3584
1.3176999999999994,-1.8687465804464287,La5Tl1Se8,mp-37829
0.03979999999999961,-0.5521348221875009,Ni4As4S4,mp-3830
4.7262,-3.5592046510896296,K2Ti1F6,mp-3970
0.14270000000000005,-0.090444063333333,Cd2As4,mp-471
0.9081,-0.5051710634821431,Ga2Hg1Se4,mp-4730
1.7361,-0.60026302859375,Tl8As8S16,mp-4988
0.15340000000000042,-1.3822658768090286,Na4Ti4Cu4S12,mp-505171
1.0027999999999997,-0.8480480930034725,Tl2In10S12,mp-505747
2.3442000000000003,-0.43917106336206896,Cs12P28,mp-541113
2.2079,-0.36656519175099256,P16S12I8,mp-541352
0.894,-0.6416853496733333,Au4Cl8,mp-541656
1.2202000000000002,-1.753565112227936,Mn6Ag2As6H4O24,mp-542292
1.1324999999999994,-0.6238129544230774,Hg4Sb16S32,mp-542596
2.1721,-1.8242997700999999,K2Li2Zn2O4,mp-551092
1.7942,-1.844816665911459,Sm6Cu2Ge2S14,mp-555978
0.8960999999999997,-3.4752860998166675,Eu2Cl2F2,mp-556382
2.7504,-2.5544100955526314,Na8Cd4Si6O20,mp-556413
2.5999,-1.7110850542129632,Ni20Sn4B8O40,mp-556514
1.1659,-2.544706220087583,Mn4P12O36,mp-557190
3.3000000000000003,-1.9018384933618175,As8Cl12O4F20,mp-557417
4.4472000000000005,-3.0868820026500003,K4Si8O18,mp-558603
2.0332000000000003,-2.3000930897500007,Li4V4Ge8O24,mp-559680
2.6128000000000005,-1.6947738172115392,Sb16Te16O72,mp-559894
3.0081,-1.7148733292669125,Nd2Sn4P20Cl74O24,mp-560060
1.8047000000000004,-1.4332515718140002,Mn4Ni12Te6Pb2O36,mp-560090
3.7969,-2.7814390498437493,Li4Ta4Ge4O20,mp-560104
2.3544,-2.0581083431500007,K2V6Cd8O24,mp-560167
4.0745,-3.1279942007553787,Cs2K1Cr1F6,mp-560956
1.9296,-3.2388024873350005,K8V8F32,mp-560997
1.8946000000000005,-3.011730731025641,Ba8Ce3Sb4O24,mp-561045
2.5032,-2.2098552379579752,Cs1La1S2,mp-561586
2.4847,-2.6853406802233546,Cs2Nb4Bi2O14,mp-562854
0.8834,-1.6774838905421745,Mn4Bi3N1O15,mp-565428
3.5009999999999994,-0.4191851061571426,Sr4Al4H20,mp-568450
0.047400000000000116,-0.3324709858,Sr28Al16Ge6,mp-571416
3.0409,-1.44025290125,Y2I6,mp-571442
1.8096,-1.200527166152778,K48Ag16O32,mp-572510
2.266,-2.5547344873964293,K12Fe8P12O48,mp-581237
3.0012,-1.9918357266071443,Ba8Si4S16,mp-5838
1.3279999999999994,-0.4052492654365081,Na20Si4P12,mp-5929
1.8164,-1.4878286440385005,As6S42I6F36,mp-637112
2.6585,-0.3747739886399997,K2H4Pd1,mp-643257
3.0256,-0.3481998978813792,Rb4H8Pd2,mp-644494
1.2803,-1.8577644277083332,Yb2S4,mp-672705
1.7338,-0.2919927699537037,In8Te8I56,mp-680058
4.9619,-2.752915146127047,K3Ca1P2H1O8,mp-696878
3.6462,-3.0654684932112066,Rb1Ho1O2,mp-6978
1.4489999999999998,-0.4914349215385183,Ba14Cu6H34,mp-707874
4.8901,-2.0356038115588,Na12Y4H24C12O48,mp-734150
0.4097,-2.373342089375,Ca1Cd1O2,mp-753287
0.2921999999999998,-1.6863067967857144,Ba4Tl8O16,mp-754897
1.6532,-2.4485876873452384,K4V2P2C2O14,mp-754947
0.9888,-1.683534759821429,Sr4Sb2O1,mp-755293
4.0347,-2.3036836348125007,Na6V2O8,mp-755436
0.7991000000000001,-1.7252944792083331,Na4Fe2O6,mp-764074
5.5292,-2.4586434130104173,K1Al1S2O8,mp-7645
3.5128000000000004,-1.6851609009389368,In8P8H40N8O40,mp-764968
2.3863,-2.485573791636123,Li4Fe2P4H2O16,mp-766101
2.2158,-2.7322927941466677,Li2V2O4F4,mp-772395
0.1604000000000001,-0.6430160460000001,Ba1Cd2As2,mp-8281
1.598,-0.6230424431696429,Tl3Sb1S3,mp-8393
1.423,-0.6960090346875004,Sb4Ir4S4,mp-8630
3.4054,-0.4978424193577777,Li4Mg4H24Ir4,mp-866640
1.1079999999999999,-0.6717812284482759,Rb2Te2Au2,mp-9008
5.0458,-2.7160989165175002,Li1As1F6,mp-9144
2.2033,-0.4803708972323992,Cs1Au3Se2,mp-9386
2.8413,-1.84647132125,Ho2Br6,mp-977375
3.5425000000000004,-1.9784827261582991,K1Rb2In1Cl6,mp-989529
1.839,-1.7019679079218752,Na1Tb1Se2,mp-999127
0.19179999999999972,-1.676433674106666,Ca3Zr3N6,mp-1029267
2.046,-0.6448961755434481,Rb12W8N20,mp-1029857
2.18,-0.6779113878399997,K12W8N20,mp-1029938
1.9445,-1.0405447933674576,Rb4Sb4S8,mp-10621
9.999999999976694e-05,-0.3644661243333334,K2Hg2Sb2,mp-10763
1.9451000000000005,-1.7287338793830818,Rb1Tb1Se2,mp-10782
0.0439999999999996,-0.6469153866250004,Cu2As2Pt2S4,mp-1078511
0.8815999999999997,-0.4853039814827589,Cs4Sb4Pd2,mp-1078965
2.3242000000000003,-0.0933360746274996,Cd1C1N2,mp-10969
0.6890000000000001,-0.3982931641666656,Sb4Te4Ir4,mp-1102430
0.9102000000000006,-1.9560325961979168,Ba2Sc2Cu2S6,mp-1103664
0.024099999999999788,-1.247578979038463,V4Ge1S8,mp-1103812
4.0464,-2.7234292014811112,Sb2Pb2F14,mp-1105453
0.6961000000000004,-0.724540838838999,Ba6Ir2C6N6,mp-1106080
0.5571000000000002,-0.7967418699999996,Ho6Sb8Au6,mp-1106363
3.1082,-1.7780035171913795,Cs2Na1Sc1Br6,mp-1112534
1.5928,-1.042367987874461,Cs3V1Se4,mp-1120763
3.5039999999999996,-3.86054780693182,Y6Ta2O14,mp-11321
2.734,-1.4520648812815382,Ba2Y2Si8N14,mp-11670
2.7435,-2.3966847020776934,Pr10Te14W2Cl6O46,mp-1173612
1.2257000000000002,-2.8693000084375004,Ba5V5O14,mp-1183410
2.6718,-2.9465948571250014,Li12La12Mo8O48,mp-1185315
0.17110000000000006,-0.02578856579062479,Mg149Se1,mp-1185632
1.634,-0.501895699027778,Tl4Hg6S8,mp-1188364
1.1527000000000005,-2.7191991116781837,Nd3Mn2Sb3O14,mp-1191901
1.7664,-1.2433957714400006,Sb2H10Cl12O4,mp-1192718
1.8941,-1.3674413342118137,Al4Ag4Bi4S6Cl16,mp-1194539
4.7533,-3.56894622359375,Ba2Sc4Si6O20,mp-1194834
2.8217,-2.03000650125,B12Pb24Br4O40,mp-1195239
3.8979,-2.6479938868643482,K4Mn4As12F72,mp-1195473
3.5787000000000004,-2.6188585467767336,Cs2K4Mn6P8Cl2O28,mp-1195628
4.7797,-3.300216171354425,Rb4Sc2Si8O20F2,mp-1195951
3.8467,-2.371855034606543,Cs8Zr1Mo6O24,mp-1197180
2.1712,-0.9768557719645432,Cs8Cu8P8S24,mp-1198842
1.8092,-0.5304755533809669,Li12As28H156N52,mp-1199218
0.5848,-1.5703482735919545,Cs16Fe4O16,mp-1201003
3.5649,-1.4530383201331452,K4Ni2H24Se4O28,mp-1202063
3.7444,-3.241823505579711,Ca20Ag2P14O56,mp-1202534
1.6258,-1.8845882347806664,Mg4H4Au8F44,mp-1202806
4.1186,-2.408131508731429,Na16Ni8P8O32F8,mp-1203157
1.9722,-1.6197784482500004,K40Fe8O32,mp-12040
0.7658999999999998,-0.4216010449950737,Rb4Ni2P4,mp-1205511
0.23839999999999995,-1.4841892958055558,K2Ce1Cu2S4,mp-1206020
1.5325,-1.390746317474138,Cs6I2O2,mp-1206444
6.8829,-3.456730535955379,Cs2Li1Al1F6,mp-1206808
0.009199999999999877,-2.154444030972222,Yb2Ag2W4O16,mp-1207650
3.3355,-3.43372766075,Y12Al12Cr8O48,mp-1207891
2.8187,-1.9868129575,Tl2Bi2W4O16,mp-1208096
2.6445,-1.4559591234482758,Rb6Mn2Br10,mp-1209364
2.0355,-2.346405315867408,Na6Pd3F18,mp-1210356
4.6888000000000005,-3.5341839122939995,Na4Ca8Y2Zr2Si8O30F6,mp-1210816
0.9078,-0.8549021320833331,Li4Fe4Br16,mp-1211043
4.3767,-3.514790614687501,Li4Nd24B12O56,mp-1211241
0.0494,-2.7218735070394726,Li24Eu4B12O36,mp-1211786
3.9197,-3.424900472453704,Ba12Y4Al8O30,mp-1214519
6.0916,-3.4410868983766667,Ba8Na8Ga8F48,mp-1214538
4.9185,-2.856961775032,Ba8Dy4Cl28,mp-1214746
2.1972,-2.2983728511249994,Al8Cd12Ge12O48,mp-1214967
4.3953,-3.6018032836458342,Sr2La2Al6O14,mp-1218220
0.012199999999999987,-2.9211026403647,Rb4Nb12P12O60,mp-1219682
1.7260000000000004,-1.0354378641346151,Nd4Si4Pb2Se16,mp-1220616
2.5753000000000004,-2.873693099682443,Na11Ti1Nb2Si4P2O25F1,mp-1221508
1.1739000000000002,-2.2549967890175,Li2Fe2F12,mp-1222351
3.5989999999999998,-2.4564187488888884,Li2Mg2Al2Mo6O24,mp-1222672
3.2,-2.7372859789444446,K2Ta2W2O12,mp-1223039
5.135,-3.524985445215416,La6B18F72,mp-1223430
3.3420000000000005,-2.795085475465456,K1Al3Fe2Si2H2O12,mp-1223658
2.4637,-3.117435928592033,La2Ti12P18O72,mp-1223983
1.1738,-0.9428054644062502,K3In21S24,mp-1224365
0.0733,-2.3398946103718767,Cs2Co2Cu2F12,mp-1225979
4.6244000000000005,-2.8888201058019036,Cs2Si1B4O9,mp-1226151
0.5028999999999999,-0.4148839006333333,K24In4As12,mp-1226185
0.7765,-0.2376096432514885,Cr1Ag1P2Se6,mp-1226281
2.0503,-3.2655241499166654,Ba6Er4Mo2O18,mp-1228244
0.1919,-2.621669521650001,Ba10Fe6W4O30,mp-1228597
0.05399999999999938,-0.3402505218750003,Sb12Ir4,mp-1239
1.1903,-1.120073171952,Ba2Be4N4,mp-12927
1.7593,-0.5541379402514884,Er2Ag2P4Se12,mp-13384
0.060200000000000024,-0.33255201322916683,Ir8Se16,mp-1361
6.865399999999998,-3.5991603094053786,Cs2Na1Y1F6,mp-13925
2.1791000000000005,-3.4233392552187514,Ho2Se1O2,mp-13974
1.0465999999999998,-0.3601694491666665,Al2Ag2Te4,mp-14092
1.0113000000000003,-0.4939506529500001,K16Ga8As16,mp-15415
0.8526000000000002,-0.4648651553879308,Rb16Ga8As16,mp-15416
1.0329000000000002,-0.4708795326428569,K16Ga16As24,mp-15432
4.3152,-2.6165523963302766,Cs12In12P48O144,mp-16464
3.7064,-3.102075346173076,K18Dy6Si12O42,mp-16595
5.3348,-3.876463578539981,Rb4Zr6O2F24,mp-17085
1.2352999999999996,-1.3172656095963546,Pr6Cu2Sn2Se14,mp-17243
1.9942,-1.9674698017727088,Nd8Mn2Se12O2,mp-17340
1.7647999999999997,-2.5815992923140003,Ba6Mn2Sb4O18,mp-17341
1.9414,-2.9167004720454552,Sr6Gd2Rh2O12,mp-17355
7.002999999999999,-4.122478952332998,Ba4Ca4Al4F28,mp-18065
1.0798,-1.55021718828125,Ba12Ta4As12O4,mp-18090
1.1252,-1.067256562552083,Sr8Ge8Se20,mp-18112
1.7799999999999998,-1.6603700927604177,Ho8Ag8S16,mp-18262
2.5146,-1.0456567527013902,Na8Ge8S20,mp-18568
2.8715,-2.6082065414835163,Sr2Co4P4O16,mp-18659
2.1210000000000004,-2.941399038409092,Sr6Tb2Rh2O12,mp-18705
3.2481,-2.700260680666668,K2Lu2W4O16,mp-18719
2.9926,-2.1084273579064035,Rb2Li2Cr2O8,mp-18741
0.3274999999999999,-1.6935969503333337,Na8Fe2O8,mp-19022
1.072,-1.5957335186562496,Na8Fe2O6,mp-19026
2.423,-2.2755966019945157,Rb4W4O14,mp-19144
1.4754999999999998,-1.745169470250001,Ba2Ni2O6,mp-19241
1.3331,-2.1890448790625,W8O24,mp-19342
3.4938,-2.408428854175824,Fe6P4O16,mp-19346
2.2196,-1.6143643749999992,Hg2Mo2O8,mp-19363
1.7715000000000003,-2.340760453,Na1V1O2,mp-19391
0.6351999999999993,-0.2067812267968749,Cu4Sb4Se8,mp-20331
0.0129999999999999,-0.4128466486666668,Gd1Si2Ag2,mp-21287
3.1030000000000006,-2.399726501607144,Zn8Si8Pb8O32,mp-21724
2.4349,-2.9571985642333343,Li3Mn3Fe3F18,mp-22200
0.2742,-3.010192780442,Sm4Mn4O12,mp-22203
5.3548,-2.79162613384,Ca2Cl4,mp-22904
1.8870999999999996,-1.858835895,Sb8O16,mp-230
4.3699,-2.9837720425736363,Ba8Cl12O2,mp-23063
2.286,-0.4273906074999999,Hg2Br2,mp-23177
5.027,-2.24863845563,K1Cl1,mp-23193
3.4284,-1.914331335,Pr2Br6,mp-23221
2.857,-1.8926873191816669,As4Cl8F12,mp-23444
0.5369000000000002,-0.6748016568865746,Ag2Bi6S10,mp-23474
2.5112,-1.0069631146120688,Cs12Cu8I20,mp-23481
5.5367,-0.4475608932357558,Rb2B12H12,mp-24123
5.1448,-1.7660415773697924,S12O36,mp-2414
2.9516000000000004,-1.223531698362292,Ni6H4Se6O20,mp-24540
4.4543,-1.781475167830469,Nd4H20Se8O32,mp-24574
1.5895,-0.9169313516039456,Cs8Sb16S28,mp-27146
2.4938,-1.5040458121984612,Al8Hg12Cl32,mp-27346
0.04740000000000055,-0.8916550390234379,Ba2Cu8S6,mp-27424
2.6664,-1.8231971462500007,Tc8O28,mp-27485
3.7403,-3.3119393388425933,Lu12Ge8O34,mp-28216
1.12,-1.6999940832779998,Ru8Cl8F64,mp-28437
0.6467,-0.9894000574706676,W2S16Cl12,mp-28575
1.0914,-2.0798081485863635,Zr6Co1Cl15,mp-28734
1.5331,-1.2993835535833338,K12Co4O8,mp-28825
1.4714999999999998,-1.3712428415312503,Na24V8S32,mp-29143
1.8172,-1.296385869673334,Ga2Cu2Cl8,mp-29362
0.6461999999999994,-0.9942454825,Cu4Pb2O4,mp-29396
3.9118,-1.05193567268653,Ba12P24N48,mp-2983
3.555,-3.078629160475834,Ta2Ag2F12,mp-29993
1.3335,-1.2170875714224134,Rb12Co4O8,mp-30194
7.7372,-3.321388025295249,Rb4B4F16,mp-3032
7.2224,-3.450224934237778,K2Si1F6,mp-3042
1.4716,-1.0483397678055555,K4Ag4O4,mp-3074
0.16579999999999995,-0.8866247340000009,Ca16As24,mp-31010
3.6018,-0.3606561261719996,Li6Al2H12,mp-31096
2.9128,-2.56735121775,Mg6Te2O12,mp-3118
3.6478,-2.8698080666666663,Tb2As2O8,mp-3248
0.1266999999999996,-0.18932193971875008,Sb2Te2Se1,mp-3525
1.6805,-2.2240903348508336,Ag1As1F6,mp-37153
0.8405,-3.4040170541266668,Ba4Cu2F12,mp-3879
3.6392,-2.1324463660000004,K8C4O12,mp-3963
0.8940000000000001,-1.174669226476,Ca12As4N4,mp-4192
2.2328,-2.295700379166666,Sr4Te4O16,mp-4274
3.513,-2.688622275614,Na2Cd2F6,mp-4360
2.6577,-2.0772365241500004,Na2Sb2O6,mp-4482
0.042400000000000215,-0.4794014680468748,Ga2Cu2Se4,mp-4840
3.8533,-2.486478835823755,Cs4Li4Si2O8,mp-504849
1.305,-1.6293526434808048,Rb4Fe4Cl16,mp-504968
2.1249,-1.5302236759038463,K12Pb4O10,mp-505187
4.3622,-2.849665908457793,Ba4P8Pb4O28,mp-505234
2.9639,-2.38152505823052,Co4P8Pb4O28,mp-505235
3.2427,-1.48759612823941,Rb9N9O27,mp-5073
0.3937,-0.4154067902777775,Na20Sn4As12,mp-5248
1.2816,-1.7338469248863633,V8Hg8O28,mp-540566
1.1239,-1.1989829216522991,Cs2Cu2O2,mp-541037
2.3158000000000003,-1.1368458740347225,K8Ge8S20,mp-541878
1.7961,-0.5967115351398061,Rb4Cd2P4Se12,mp-541897
1.4572,-0.9805259589511492,Cs1Cu3O2,mp-553303
5.5176,-1.2131440092272416,Cs1K1Cl2O8,mp-554015
4.4119,-2.7510230492721743,Li8Ga6Si6Cl2O24,mp-554203
3.0551,-2.7652382922500007,Ca4V2Bi2O12,mp-554381
5.1874,-3.1923619256129654,Cs4Lu4P8O28,mp-554854
4.2536999999999985,-1.83751473073,Na2I2O4F4,mp-554948
4.5897,-3.1759491409852947,K2Ca8B6O18,mp-555023
4.6099,-3.261480413793333,Na4Al4Cd4F24,mp-555048
5.4052,-3.331145049866122,Ca20P12Cl4O48,mp-555164
3.1655,-3.5534122768627783,Dy2Ti2Cl2O6,mp-556108
1.8430000000000002,-3.0128603464887496,Li4Mn2F10,mp-556229
2.458,-3.0365175657829653,Rb1V1F3,mp-556424
0.17910000000000004,-2.146733113773706,Pr30Ti24Se58I8O25,mp-556938
0.8702000000000003,-2.4756440864511275,Na4Cu2P8O24,mp-557171
6.0556,-3.7567896948166655,Yb2Cl2F2,mp-557483
4.5331,-2.4352772755484704,Tl4Zn4P12O36,mp-557589
5.3644,-2.5031644169553795,Cs2Ni2F6,mp-557772
3.2961,-2.896218996111111,La4Nb4Te4O24,mp-557784
2.9041,-2.353498068145237,K4Ag4P8O24,mp-557874
3.8119,-2.6304157228830807,Rb4In4P8O28,mp-557952
3.0500000000000003,-1.8411463804790908,Pb6W2Cl4O10,mp-558673
1.7473999999999998,-2.20164635929182,Mn2V4Te2O14,mp-559026
3.5551,-2.628235597023809,Ba4Bi4B4O16,mp-559186
2.123,-2.6095475522608784,Rb4V4P8O32,mp-559279