band_gap,formation_energy_per_atom,full_formula,task_id
0.0,-0.06943106333333304,Sb8Au4,mp-738
2.8059,-2.5893607041666673,La2Ag2O4,mp-754535
2.3474000000000004,-2.4949058850793655,In2P2O8,mp-7566
4.6331,-1.8132040618160898,Zn4P8H28N4O32,mp-758284
3.8611000000000004,-1.9449514333296822,In4P4H16O24,mp-766835
3.1961,-2.280025920049452,Na6Cd2P2C2O14,mp-767430
2.8709,-2.2531047262032975,Na6Co2P2C2O14,mp-770948
2.091,-2.0493462465175,Zn1Pt1F6,mp-8256
0.0,-0.5544645458333335,Ti2Cr1Ir1,mp-861656
0.0,-0.57643367875,Ce1Bi1Au2,mp-861888
0.0,-0.43645251625000014,Li1Pm2Ir1,mp-861956
0.0,-0.8308620325000007,Sc2Ir1Ru1,mp-862369
0.0,-0.3067354087499998,Be1Co2Ge1,mp-862706
0.0,-0.6897286237499993,Li1Sc1Au2,mp-862815
0.0,-0.396852949166667,Er2Ag1Ru1,mp-862978
3.0130999999999997,-1.4259069070283334,In2Cl6,mp-862983
0.0,-0.23996819291666682,Pm2Ag1Ru1,mp-862991
0.0,-0.3802057783333339,Ti2Mn1Co1,mp-863690
0.0,-0.43451521916666724,Pm2Si1Ag1,mp-863743
0.0,-0.2689793212499998,Li1Sn1Ir2,mp-864768
0.0,-0.5981730624999999,Be2Ni1Rh1,mp-864895
0.0,-0.9005696349999992,Hf1Ga1Rh2,mp-865019
0.0,-0.3055138174999996,Lu1Mg1Zn2,mp-865256
0.32070000000000043,-0.36692577500000034,Nb1Al1Fe2,mp-865280
0.0,-0.41577305374999973,Tm2Zn1Ru1,mp-865351
0.0,-0.9809817824999998,Tm2Ir1Pd1,mp-865354
0.0,-0.28481603,V3Ru1,mp-865382
0.0,-0.3624207762499996,Lu2Al1Os1,mp-865463
0.0,-0.28058656833333373,Ti2Ni1Mo1,mp-865591
0.0,-0.47864720333333377,Ti2Tc1Ni1,mp-865878
0.0,-0.6579467641666668,Ti1Ga1Pd2,mp-866140
0.0,-0.2525395456249999,Li2Sm1Tl1,mp-866200
0.0,-0.5901670304166666,Yb2Ag1Sn1,mp-866212
0.0,-0.31443339000000003,Er1Cd1,mp-867
0.0,-0.2928973975,Li1Ca2Tl1,mp-867167
0.0,-0.36209698,Sm2Tl1Cd1,mp-867191
0.0,-0.35744063374999957,Er2Ni1Os1,mp-867344
0.0,-0.23876063418831178,Yb11Ni60C6,mp-8792
7.1511,-4.056003980135714,Ca2Al2F10,mp-8836
0.0,0.0,Cd2,mp-94
0.0,-0.5697685801515152,Tb6Fe2B14,mp-972235
0.0,-0.4021908051666664,Sm1Ag2Ge2,mp-972680
0.0,-0.79330142375,Lu2Si4Ni2,mp-973633
0.0,-0.12971261621999908,Re3N1,mp-974435
0.0,-0.3085086082692302,Nd1Al8Cu4,mp-974729
0.0,-0.523342594090909,Pr3Cu4Sn4,mp-975640
0.0,-0.8058154750000002,Ba2Sb4Pd2,mp-9768
0.0,-0.0985526112499997,Sm12Co4,mp-980752
1.9467999999999996,-0.9808881607812507,Ta2Tl2Cu4S8,mp-9815
0.0,-1.3669634558333321,Os2O4,mp-996
0.0,-2.004320665625,Ba2Cu2O4,mp-997034
0.0,-0.9213681366666661,Ho1Bi1Pd1,mp-1009132
0.0,-0.6609030833333336,Yb1B1Pd3,mp-10135
0.0,-0.8332913468333345,Ti4Re2B4,mp-10136
0.0,-0.2796894331249993,Er1Fe1C2,mp-1018064
0.0,-0.13587225500000008,Ba2Zn1,mp-1018178
0.0,-0.8021310640476192,Li1Y1Cu2P2,mp-1018791
0.0,-1.1810458050000001,Pr2Sb2Te2,mp-1018936
4.8958,-2.690657231469298,Li24B16O36,mp-1020024
0.0,-0.5676393583333331,Sc2Ge4,mp-10212
0.0,-0.43494573083333304,La2Cu2Pb2,mp-1025128
0.0,-0.8134588924999999,Tm2Si4Ni2,mp-1025393
0.0,-1.3396787237499996,Lu4Pt4,mp-1025438
0.0,-0.5471487334519999,Li10Os2N8,mp-1029448
0.07430000000000003,-0.5795876799087498,K16Mo16N32,mp-1029815
0.04360000000000053,-0.7377084768676918,Ca10Ru4N12,mp-1029860
0.0,-0.9957710420233331,Ca8Mn4N12,mp-1029959
0.0,-0.7210627540000004,Ho2Al1Si2,mp-10528
0.0,-0.48522053899999945,Eu1Co1Ge3,mp-10690
1.9741,-1.7210325806330817,Rb1Ho1Se2,mp-10783
1.0756000000000001,-2.4148192658924996,Li1Ru1F6,mp-1078834
0.0,-0.8058601599999999,Y2Ga4Pd2,mp-1079075
0.0,-0.66099364,Ce2Co2Ge4,mp-1079178
0.0,-0.9851654175000011,Gd2Sn2Pt4,mp-1079214
0.0,-0.21890950875000126,Tl2Pd6,mp-1079938
0.0,-0.4202615862499999,Sr2Hg6,mp-1080552
0.0,-0.06270708599999963,Nd4Co6,mp-1084826
0.0,-1.0373734958333334,Li4Eu4As4,mp-1095352
4.167000000000001,-2.8217892091071426,Ba1Ge1P2O8,mp-1095485
0.0,-2.4486669386197923,Er5S7,mp-1095508
1.0537000000000005,-1.5840286634635419,Ba2Y2Cu2Se6,mp-1101801
0.0,-0.16954177249999938,Y4Tc8,mp-1102030
0.0,-0.6173888215909087,Sm3Cu4Ge4,mp-1103415
0.0,-0.9461893316666661,Dy8Pt4,mp-1103421
0.7719999999999998,-1.0957112327011493,Cs2Gd2Cd2Te6,mp-1104011
0.0,-0.8948414635294112,Ho3Si2Sn3Rh9,mp-1105133
0.0,-0.7652883988888886,Sc6Al6Au6,mp-1105210
1.1917,-1.1791313145312499,Li4Mn2Sn2S8,mp-1105291
0.0,-0.14046038875000022,Y12Co4,mp-1105598
0.0,-1.1988992724999996,Tb7Fe1I12,mp-1105605
0.0,-0.5026420663333326,Mg4Be2B4Ir10,mp-1105674
0.032500000000000195,-0.20273086812500019,Nd12Ru4,mp-1106300
0.0,-0.9146430095681815,K6Cu8S8,mp-1120730
1.3573,-0.9556529897968753,K3V1Se4,mp-1147776
0.0,-0.2839847493749996,Dy4W4C8,mp-1181428
0.0,-0.5487457816666659,Gd2Ag1Ir1,mp-1184371
0.0,-0.24099081249999976,Gd1Lu1Cu2,mp-1184522
0.0,-0.27392343750000236,Gd1Y1Ru2,mp-1184716
0.0,-0.4690439972916671,La1Er1In2,mp-1185035
0.32550000000000034,-0.021964189199999852,Lu1Mg149,mp-1185595
0.0,-0.08123940945833352,Na1Tl2In1,mp-1186185
0.0,-0.548183793333334,Pm2In1Sn1,mp-1186508
0.0,-0.04698940249999772,Ta3W1,mp-1187206
0.0,-0.8003674099999998,Tm10Ge6,mp-1188310
0.0,-0.6289194891596641,Eu1P12Ru4,mp-1188524
0.0,-0.48504923666666677,Pr2Al4,mp-1189
0.3780999999999999,-0.721515403,Dy6Cu6Sb8,mp-1189135
0.0,-1.1594234379999997,Tb7Mn1I12,mp-1190033
0.0,-0.5226973597743054,Tl2Cr6Se10,mp-1190043
0.0,-1.020222875625,Yb10Pt6,mp-1190212
2.8781999999999996,-2.64699475659938,Ba3Zn3Te1P2O14,mp-1190416
6.1004000000000005,-4.018439368767471,Rb4La4F16,mp-1190838
0.0,-0.5730178393749998,La6Ga6Bi12,mp-1191138
0.0,-2.5196223073863653,Y4Ir4O14,mp-1191749
0.0,-0.40994970230769157,Yb2Al20Os4,mp-1192485
0.0,-0.2934625490000011,Zr22Os8,mp-1193087
0.0,-0.9578901948275866,Eu11Zn6As12,mp-1194247
3.2839,-2.7239712093749993,Ba6B6Pb4Br2O18,mp-1194742
1.2655999999999998,-0.4855513866,K32Nb4Sn4As20,mp-1194900
0.9686999999999999,-0.6216453156432259,Mn4As8H64S32N16,mp-1195801
0.0,-0.9359588790476189,Dy6Co18P12,mp-1195923
5.7306,-2.2413817759829633,B40H32N8O64,mp-1196660
0.0,-0.7777719338888889,Yb3Sn3Rh3,mp-11973
3.6525,-1.6550851371807143,K16Bi8H32Cl40O16,mp-1197978
0.0,-0.3227995510000007,Tm6Ge26Os8,mp-1200122
4.8848,-2.5570373621097175,Cs2Ga2P6H2O20,mp-1200666
3.7822999999999998,-2.629398069552359,Cs4In4P8O28,mp-1200734
0.0,-1.7212542086875005,Eu8Lu2Sn6S24,mp-1201125
1.9441000000000002,-2.184149157890625,Gd4V4Se8O32,mp-1203163
0.0,-0.7228893735714282,Ho22Sn20,mp-1203269
0.0,-0.9306869162698419,Tb6Co18P12,mp-1203453
0.0,-0.5952550537500002,Tb8Re12Si20,mp-1203495
2.0428,-2.141929580031251,K4V8Se4O28,mp-1203567
1.468,-1.6080902035507296,Sb16Se80F96,mp-1205478
1.0451000000000001,-0.5144551473399013,Cs4P4Pd2,mp-1205610
0.0,-0.3138597434722226,Nd1In1Ni4,mp-1206218
0.0,-0.9001407699999995,Ce3Ge4Rh4,mp-1206300
0.0,-0.6197078549261079,Rb1P2Ir2,mp-1206529
0.0,-0.7063405193750008,Sm2Fe2Si4,mp-1207071
5.0677,-3.619891953437501,Tm4Be4Si2O14,mp-1207992
0.0,-0.6776269008333328,Tb4Zn4Ge4,mp-1208296
0.0,-0.9682168383333334,Sm12Ge12Pd12,mp-1208689
0.0,-0.6992868233333335,Sm6Ni20As13,mp-1209077
0.024300000000000002,-2.0260960927110276,Rb4Sm4Se8O32,mp-1209322
0.0,-0.537037167037037,Sr8In16Au12,mp-1209343
0.0,-0.45697362442307654,Nd2Al20Os4,mp-1209871
0.0,-0.955791172614943,Rb1O2,mp-12105
1.9406000000000003,-2.4801557032102606,Mn2V1P1O7,mp-1210613
0.0,-2.0675128657500004,Mg6Cu4As6O24,mp-1210695
0.0,-0.11367535369318205,Lu4Mn34C6,mp-1211163
0.0,-0.5796321305,La4V4Sb12,mp-1211432
0.0,-1.9530232999685713,La12Si4Cl12,mp-1211457
6.8027999999999995,-3.8082949539937503,K8Tm4F20,mp-1211536
0.0,-1.0057107906250007,Ho10Sb2Pt4,mp-1212195
0.0,-0.8411286042380952,K2Ce2Ag2Te8,mp-1212465
0.0,-0.4695927803124995,Ga20Ir12,mp-1212680
0.0,-1.0066522133333333,Dy4Sb4Rh4,mp-1212894
0.0,-0.6651039010714282,Dy4Ga18Ir6,mp-1213136
0.0,-0.7956726858333342,Er12Ni4Ge8,mp-1213162
3.3754,-3.4612298950000002,Er12Al12Cr8O48,mp-1213214
0.0,-3.5128914323749996,Eu12Sc8Al12O48,mp-1213328
0.9582999999999999,-1.1465801017771884,Cs2Ho2Nb12Br36,mp-1213418
0.9845999999999999,-1.1516821912964188,Cs2Sm2Nb12Br36,mp-1213498
1.7550000000000001,-0.13429750711805552,B8Se16,mp-1214789
0.0,-0.30518908230769226,Yb1Al7Cu5,mp-1215672
0.0,-0.292772226666667,Zr3Al1Fe8,mp-1215720
0.0,-0.062402750000000666,Y1V1Fe11,mp-1215844
0.0,-0.06417771000000094,V1W1,mp-1216231
1.5141,-1.782618109537037,Ti1Tl2Te3O12,mp-1216797
0.0,-1.1064170781620835,Ti4C3N1,mp-1217103
0.0,-1.0435070780000004,Tb1Si2Ru1Rh1,mp-1217478
0.0,-0.25679830027777784,Tb17Mg11Ni8,mp-1217746
4.2159,-3.580972351562501,Sr2Sm2Al6O14,mp-1218016
0.0,-1.2573089413068188,Ta6Cu4S12,mp-1218053
0.0,-0.4147764102777778,Sm2Cd2In2,mp-1219107
0.0,-0.30800913769230714,Sc1Mn6Ga1Ge5,mp-1219367
0.0,-0.7748937584920633,Sc4Ta1Fe19P12,mp-1219445
0.0,-0.4276518369444447,Nd2Cd2In2,mp-1220203
0.0,-0.48245368908333397,Na1Sn2Pd3,mp-1220866
4.537100000000001,-3.2753437427220007,Na2Ca1Mg5Si8O22F2,mp-1221470
0.0,-0.31384229375000006,Mg3Au13,mp-1222172
4.464600000000001,-3.6511211986428584,K1Nd9Si6O26,mp-1223480
0.0,-2.4161448332031257,Gd3Sc2S7,mp-1224776
0.0,-0.9338056035714277,Eu2Al1P3Pt7,mp-1225411
0.0,-0.3600712333333327,Ce1Al2Cu3,mp-1226644
1.3056999999999999,-0.8427596313541663,As4Rh4S4,mp-1228745
0.0,-2.771717150371878,Cs2V2Cu2F12,mp-1229021
0.0,-1.3818397420999997,Ca3La32Os5I60,mp-1229300
0.0,-0.6684234491666672,Gd4Zn4Ge4,mp-13159
0.0,-0.5083085250000003,Mg2Sc4Ga4,mp-13570
0.0,-0.810565001666666,Dy2Ir4,mp-1358
2.0869,-2.0272366667968753,Ca1Se1,mp-1415
0.05259999999999998,-1.389149932,Er8Te12,mp-14643
0.0,-3.7377798392803046,Pr8Ti8O28,mp-15201
0.0,-0.7905557325000003,Ho4Si10Ni6,mp-15206
1.659,-0.9864839364735993,Cs4Nb2Cu2Se8,mp-15223
2.1491999999999996,-2.6715577025778385,V6P18O54,mp-15361
0.0,-0.3234859112499997,V6Rh2,mp-1578
0.0,-0.2747272894759988,Mn3Zn1N1,mp-15805
1.1021999999999998,-3.263901913500001,Dy2Te1O2,mp-16037
0.0,-0.4454607406250002,Nd2Al6,mp-16513
0.0,-1.0443546258333332,Sm1Ni1As1,mp-16734
0.34609999999999985,-2.8482320887499997,Sr4Gd2Ru2O12,mp-16796
5.298,-2.958170629412339,K4Al4P8O28,mp-17031
0.19489999999999963,-0.8687982854375008,Rh8S12,mp-17173
2.4674,-1.3340762774400001,Sr8Ta4N12,mp-17518
0.0,-0.08239936500000056,Dy2Fe4,mp-1757
2.2777999999999996,-2.192233351547619,Li4In4Ge4O16,mp-17854
0.0,-0.16745757059499944,Fe6N2,mp-1804
2.0531,-2.963283515416666,Ba1Nd2Ni1O5,mp-18763
2.1170999999999998,-2.7491050641396098,Li2V2P4O14,mp-18911
3.0556,-2.4190809703189666,Rb4V4O12,mp-19031
0.0,-0.8312364025000001,Tb4Si4,mp-1924
0.0,-0.8163833580000002,Eu1Si2Pd2,mp-20115
0.0,-0.5400293447222223,Ti4Si4Cu4,mp-20255
0.05549999999999988,-0.42299128679687525,In2Ag2Se4,mp-20554
0.0,-0.4485634666666667,Li1In2Pd1,mp-20801
0.0,-0.8365977648809526,Nb4Ni4P4,mp-20932
0.0,-0.34350849250000026,Tm1In3,mp-21177
0.0,-0.27263957270833306,Sm3In1,mp-21202
0.0,-0.999920653888888,Ho3In3Pt3,mp-21290
0.0,-0.8127612962499997,Ho2Cu2As4,mp-21364
0.0022999999999999687,-0.44676167444444403,Ce3In3Ni3,mp-21492
0.0,-0.4359790077499994,Ge16Pt24,mp-21673
0.0,-0.614031578333333,Yb2Ga4,mp-2178
0.0,-2.59633266125,Ba2Co1W1O6,mp-22112
0.0,-0.7054228649999992,Hf4Si4Mo4,mp-22258
0.0,-0.6027148216666672,Yb2Rh4,mp-2235
0.0,-2.4066350082,Ba2Na1Os1O6,mp-22442
0.0,-0.0350031349999993,Cu3Au1,mp-2258
0.0,-2.5952096657500006,Nd4Co4O12,mp-22599
1.4489999999999998,-1.7129427827200001,K2Pd1Cl4,mp-22956
0.0,-0.5393367072222226,Eu2Ag2Bi2,mp-23378
0.0,-0.6083430286363636,Hg10Br4O8,mp-23543
3.2839,-2.4534017915416677,Bi12B20O48,mp-23549
4.2591,-1.8641223063412498,Ba2H8O6,mp-23904
2.9687,-0.20568156448241393,Rb1H1,mp-24721
2.0244999999999997,-0.3642291600000003,Be1Te1,mp-252
0.7880000000000003,-3.3404050186553036,Y2Ti2S2O5,mp-25305
0.0,-0.1984542883333328,Dy2Co4,mp-2628
0.0,-0.24643338833333317,Mg1Ag1,mp-2696
0.0,-0.8839449700000008,Tb1Pd3,mp-2747
0.0,-2.04871009162353,Sc7Cl10,mp-27513
0.0,-0.8324148399999984,Hf1Ru1,mp-2802
1.7624,-0.963881702401786,Na8S20,mp-28127
2.4307999999999996,-2.1641370408981477,Na9Re3O15,mp-28205
1.8573999999999997,-0.7818762188362067,Rb4I12,mp-28328
0.0,-0.7740340164285713,Ho2Ni12P7,mp-28412
0.0,-2.1566158507939184,La16Nb14S44,mp-28507
0.43620000000000037,-0.26019686041666645,Tl16Sn8Te24,mp-28662
0.0,-0.5472448106439398,V18C15,mp-28731
1.4605000000000001,-0.9147732380416664,Na8Sn2Se8,mp-28768
0.0,-0.6976857821428575,La4Ni24P10,mp-28821
1.5976999999999997,-1.480385706428572,Ca2Au4O8,mp-2898
2.6080000000000005,-1.6874531856249995,Tl3V1O4,mp-29047
1.3634,-1.962998503522727,Li5Bi1O5,mp-29365
0.41100000000000003,-1.0160119322499999,K8Zr4Te12,mp-29602
0.0,-1.5001299131632655,La12P4I12,mp-29996
0.0,-0.08543135913461587,Ni12Mo12C2,mp-30052
0.6210999999999998,-1.436774533,Na1Tl1O2,mp-3056
0.0,-0.8492739495833342,La1Al3Pd2,mp-30815
3.0674,-1.150804532875,K4Pb8Br20,mp-31508
0.0,-0.38865613833333335,Y1Mg1Ni4,mp-3433
0.0,-0.5092837487499997,Er1Ga3,mp-398
0.0,-0.9037704265000002,Sm1Si2Ru2,mp-4072
0.0,-0.11362343612745128,Nd8Co56B4,mp-4164
1.0516,-0.35029075515873054,Na20Ge4P12,mp-4172
0.0,-0.30433394000000025,Nb1Ga1Co2,mp-4364
0.0,-0.6857996259999993,Sr1As2Ru2,mp-4404
0.0,-0.8156869427777775,Er3In3Pd3,mp-4508
5.3034,-3.678622039999999,Hf2Si2O8,mp-4609
0.0,-3.7322896023032013,Rb2Eu6F20,mp-504520
0.019200000000000106,-2.310224707114,Na4Cu4F12,mp-505085
0.0,-0.3367887659999994,Ta6Te28Pd6,mp-505132
0.0,-1.5717626407933336,Ru4O8F24,mp-505242
0.38450000000000006,-1.0537436104635418,Na4Hf4Cu4Se12,mp-505448
0.0,-0.5442435175,La1Mn2Si2,mp-5069
0.0,-1.8827091070535704,Ba4Ir6O18,mp-510508
0.0,-2.1424472841666664,Mo4O8,mp-510536
0.0,-0.4092352825000001,Nb1Al1Co2,mp-5149
3.9132000000000002,-1.5170293087187503,Zn8Se8O24,mp-5338
0.0,-0.18675135362068843,Co21Re2B6,mp-541852
0.0,-0.4101359150000003,Gd2Ni4,mp-543019
0.0,-0.9375459325,Sc1Sb1,mp-549
2.9515,-2.1192980794999996,Ba2Bi2I2O4,mp-551243
3.8061000000000003,-2.6398081930434785,Li8Al6Ge6Br2O24,mp-554733
4.3422,-3.196085054121796,Na8Er8B8O28,mp-555104
3.8024000000000004,-3.0089709209347832,K2Ca20V14O56,mp-555127
4.912599999999999,-2.9239888500175004,K2Sb2F12,mp-556888
5.166600000000001,-2.7539516261505548,Rb4Si2P8O26,mp-557355
3.6233999999999997,-2.3632210727023812,K4Li2B2O6,mp-557632
1.8039999999999994,-1.911908800286459,Dy6Si2Cu2S14,mp-557998
2.6683,-1.154043879513356,Cs2Ag2N4O12,mp-558217
7.3825,-3.8607578865175003,Ba1Si1F6,mp-5588
3.8160000000000003,-2.47121194413961,Fe4P8Pb4O28,mp-560012
2.907,-1.4703051518839285,Na24Al8S24,mp-560538
3.9303999999999997,-2.866803261636837,Ba2Fe4P4O14F4,mp-561063
3.1839,-3.352077194315475,Gd6B2W2O18,mp-561177
5.6852,-3.1508952770487015,Na4Lu4P8O28,mp-561535
3.0587,-2.119622839815271,Cs4Li4Cr4O16,mp-561778
0.0,-1.0384835498571434,Ho1P2Ru2,mp-567458
0.0,-0.7450540019999998,Sr1Si2Pd2,mp-568402
0.0,-0.17745582916666672,Dy3Co9,mp-568945
0.0,-0.7266540927777775,Sc8B24Rh4,mp-569116
0.0,-0.6277228014705877,Ca3B6Rh8,mp-569257
0.0,-2.4803469171372785,Cs2Lu7C1Cl18,mp-569387
0.0,-0.24238364555555514,Li3Zn3Ge3,mp-569788
0.0,-0.8265034931944449,Er5Zr3Ni16As12,mp-569804
1.4027999999999998,-0.48596907692552027,Rb16P24Se48,mp-569883
2.1115,-1.091303004608,Pb2Cl8,mp-570355
0.0,-0.5145056878260867,Sm4Ga16Co3,mp-570441
0.9825999999999997,-0.4553195739236118,Nb8Tl12Cu4Se48,mp-570757
0.0,-0.9839188751851858,Ce2Al16Pt9,mp-570981
0.1783999999999999,-0.07343774791666687,Ag12Te8Au4,mp-5710
1.1799,-1.5902153915245847,Cs4La2Ta12Br30O6,mp-572512
1.8228999999999997,-3.2280150819718187,K2Sr2Nb4O12F2,mp-579086
0.19559999999999977,-1.4591743201041671,Eu6Ge6S18,mp-581575
0.0,-0.5155975436363635,Sm4Al23Ni6,mp-581770
0.0,-0.18686129775362323,Zn106Ni32,mp-581951
0.0,-0.14863503898245622,K16In22,mp-582929
0.0,-0.5667315574999996,Yb7Al5Ge8,mp-583724
0.0,-0.3426894259259272,Gd3Co11B4,mp-605854
0.5930999999999997,-0.983215049267241,Cs1Sc3Cu2Te6,mp-607477
0.49670000000000014,-1.8336135549090906,Na4Cu2C4O12,mp-6090
1.1940999999999997,-1.0093511713802084,Ho4Cu4Pb4Se12,mp-6244
0.0,-0.48369419972222183,Li4Sn20Rh12,mp-638141
0.6621000000000001,-0.38992145863636357,Te6Pd8Br8,mp-638749
0.0,-0.46718897766666745,Ce4In2Ni4,mp-640108
1.9459000000000002,-0.3100363316620368,Na6B54Se48,mp-640950
0.0,-1.5614972645000007,Cu6H4O4F8,mp-643793
2.4005,-1.7086754282791219,Cs3V1H8Cl6O4,mp-644672
0.0,-1.9309029691964292,Eu4Dy8Se16,mp-645690
1.3757000000000001,-2.5837297292674997,Na4Cr4F24,mp-646192
0.0,-0.7134523695357146,Ce8Si8P24,mp-651900
0.7322000000000002,-1.5375064715984579,Cs2Tb6Te7N2,mp-655613
0.0,-0.6047195291071422,Nd2Fe2Si2C1,mp-6638
2.6592000000000002,-2.1913704718833342,Na4Li4Ge16O36,mp-6663
0.0,-0.6313503627777782,Ca3Pd3Pb3,mp-672254
0.0,-0.6190162417647049,Eu3B6Rh8,mp-672322
0.0,-0.31653458568965614,Ta6Co16Ge7,mp-672652
0.06009999999999982,-0.15564175556250026,K12Ga52,mp-680682
3.2756999999999996,-3.3963039370833332,Ca4Gd1B3O10,mp-6943
0.4090999999999996,-2.389213778500001,Sr2La2Ni2Ru2O12,mp-694873
0.0,-0.49644579899999997,Sc1Si2Cu2,mp-6969
2.4057999999999997,-2.413826679542857,Fe4P8Pb6O32,mp-704946
0.0,-0.29080466683760675,Sr28In11,mp-705522
0.0,-3.428838869310345,Ca12Al14O32,mp-721592
1.4002999999999999,-1.993692995987778,Na2Ag2F8,mp-7386
1.2492999999999999,-2.937452704232031,K8Ti6Mn2P12O48,mp-743671
0.0,-0.7271848250000001,Ba2Pt4,mp-747
0.0,0.0,Nb1,mp-75
3.9758999999999998,-3.146037622625,K1Ho1O2,mp-754883
3.3897000000000004,-3.7752226755263156,Tm6W1O12,mp-756123
1.7142999999999997,-2.351987957867647,La12Pt12O44,mp-768523
0.0,-0.26361813499999975,Mn2Al2,mp-771
2.7670999999999997,-1.8767468058141763,Cs16Ge4O16,mp-779716
0.0,-0.3448898546666669,Sr1Ag2Ge2,mp-7879
2.9092000000000002,-2.9110015103017233,Cs2Sm2O4,mp-7977
0.0,-1.0230132950000002,Sr2As2Pt2,mp-8456
0.0,-0.39643440374999983,Li1Ge1Ir2,mp-861882
0.0,-0.37771159374999996,Cd1Ga1Rh2,mp-861909
0.0,-0.29208042124999967,Sc2Tl1Cd1,mp-861918
0.0,-0.33447988208333346,Ho1Al1Ag2,mp-861934
0.0,-0.34421154666666665,Ho2Tl1Ag1,mp-861993
0.0,-0.532984526249999,Sc2Ga1Os1,mp-862300
0.0,-0.46557235999999946,Sc2Ga1Cu1,mp-862340
0.0,-0.3896584445833331,Sr2Cd1In1,mp-862720
0.0,-0.4442188312500006,Pm2Zn1Si1,mp-862733
0.0,-0.5459133456250003,Ca1Pm1Hg2,mp-862883
0.0,-0.6673878656249999,Pm1Cd1Pd2,mp-862898
0.0,-0.6357820593750003,Pm1Sb1Au2,mp-862953
0.0,-0.34001763875000046,Pm2Mg1Ga1,mp-863705
0.0,-0.7368505686226665,Ag4Cl6,mp-864635
0.0,-0.31137746124999843,Ta2Nb1Os1,mp-864639
0.0,-0.3328684418750001,Nd1Mg1Zn2,mp-864925
0.0,-0.48084266249999974,Tm2Ni1Ru1,mp-865367
0.0,-0.5804202312500006,Tm2Os1Rh1,mp-865375
0.0,-0.7000597754166664,Ti1Ge1Ru2,mp-865640
0.0,-0.8364289012499997,Yb1Sc1Rh2,mp-865994
0.0,-0.6439750500000008,Al1V1Ru2,mp-866001
0.0,-0.5757445574999993,Mg1Ta1Rh2,mp-866072
0.0,-0.4109511908333334,Li1In1Au2,mp-867287
0.0,-0.13033586062499936,Re2Ir6,mp-867792
0.0,-0.29861724645833343,Sm1Mg1Ag2,mp-867862
0.0,-0.5888632787499999,Sc1Tl1Rh2,mp-867881
0.0,-0.7321716799999995,Li1Lu1Au2,mp-867903
0.0,-3.2901448789062506,Eu8Si4O20,mp-867966
0.24600000000000002,-1.8993407845368537,Rb2Pd4F10,mp-8958
2.1651000000000002,-2.1315720904579742,Cs1Nd1S2,mp-9081
2.4151999999999996,-2.160450387117458,Rb1Lu1S2,mp-9370
0.0,-0.5682302881249996,Sm1Tl1Au2,mp-972542
0.0,-0.41540115562500013,Pm1Bi3,mp-973767
0.0,-0.17312039946428573,Nd2Be26,mp-973809
0.0,-0.791549632666667,Hf8Co8Si14,mp-976184
0.0,-0.8065178124999998,Nd3Al3Pd3,mp-976368
0.0,-0.33614002749999994,Dy1Y1Cd2,mp-979417
0.0,-0.38043676250000047,Pm2Zn1Hg1,mp-982387
0.0,-0.14815336500000065,Nb2Ru1W1,mp-982725
0.0,-0.4098790799999996,Hf2Fe1Tc1,mp-983362
0.0,-2.7658359177675003,Ca1Rh1F6,mp-9928
0.0,-0.6535336949999989,Hf4Ge2,mp-9939
0.0,-0.7901198874999995,Pr2Pd2,mp-999291
0.0,-0.7953072575000002,Lu2Si2,mp-1001612
0.25259999999999994,-1.9801558092742855,K1Mn2O4,mp-1003314
0.0,-1.1144650081249998,Ca10As6,mp-10047
0.0,-0.5399257000000004,Hf2Au2,mp-1007755
0.0,-0.50366604375,Li1Si1Ni2,mp-10181
0.19390000000000018,-0.6664646,Ho1Ni1Bi1,mp-1018139
0.0,-0.8097508708333336,Li3Ho1Sb2,mp-1018764
5.0076,-2.954678364473957,Ba4Na4B20O36,mp-1019554
0.0,-3.4315662778571427,Eu4Al8O16,mp-1019732
5.1751000000000005,-2.971796468763158,K2Mg12P14O48,mp-1019806
1.8172000000000001,-0.6306500380711112,K1Na2B1N2,mp-1019888
0.0,-0.569440898571429,Ni2Mo2P4,mp-10208
0.49709999999999965,-0.5267360479519994,Ca1Zn2N2,mp-1029258
0.0,-0.5660763540000004,Ho2Al1Ni2,mp-1069801
0.0,-0.14895160914266653,In1Ni3N1,mp-1070713
0.0,-0.44985566333333377,Er2Al2Zn2,mp-1072798
0.0,-1.2156573666666664,Gd2Te4,mp-1076964
0.0,-0.4075399205555558,Ce2Ga2Ag2,mp-1077578
3.8467999999999996,-2.86042696415,Na2Nb2O6,mp-1078295