band_gap,formation_energy_per_atom,full_formula,task_id
3.8302,-0.9636090867766663,Na4Cr4H88N24Cl16O8,mp-849785
2.2436,-2.6292783574228578,Na8Ca8Fe24P32O128,mp-850003
3.4985,-3.537267300268556,Cs1Ba2Cr2F11,mp-865412
4.3283000000000005,-1.5345173838871018,Rb2Zn2H4Se4Cl2O12,mp-867129
4.002,-1.460147007482487,Rb2Zn2H4Se4Br2O12,mp-867132
5.3602,-2.2701304692974547,Rb2Mg1P4H8O16,mp-867153
0.6326000000000005,-0.935988095,Sr2Sb1Au1,mp-867168
2.4279,-2.4252592874375,Pm4S6,mp-867180
1.3592,-0.9655572999999996,Sr1Mg2As2,mp-867194
0.5215000000000001,-0.9636970100000004,Sr4Cd2As4,mp-867203
2.0937,-1.3827369149999995,Tb2I6,mp-867231
2.8569999999999998,-1.8607668237500008,Tb2Br6,mp-867247
4.1259,-2.797120924504976,Rb1Sr1C1O3F1,mp-867261
1.7177,-1.198180587919048,K4P2Pd1S8,mp-867268
1.9903,-3.1488765571599613,Rb2Hf2O5,mp-867300
1.7612000000000003,-1.8969314270920137,Pr6Si2Ag2S14,mp-867322
2.7932,-1.8053799798928576,K2Y2Si2S8,mp-867328
3.1218000000000004,-1.2808823751192009,K2Zn1H4I4O14,mp-867329
0.9726,-0.6050820093874553,Cs4Mn2P4Se12,mp-867332
2.4167,-1.6320335748928574,K2Y2Ge2S8,mp-867334
1.013,-0.5149175552499998,K4Sb2Au2,mp-867335
0.3167999999999997,-0.6232840201666665,K4Sr2Cd2Sb4,mp-867336
0.3027000000000002,-0.3438965368017244,Cs1K2Bi1,mp-867339
0.1504000000000003,-0.6314204368333337,K4Ba2Cd2Sb4,mp-867340
1.6531000000000002,-0.7575160283593751,Al8Tl8Se16,mp-867359
0.7160000000000002,-1.292087928070723,K2Y4Cu4Se9,mp-867371
2.7924,-1.6748020329678122,Ge14H16N4O30,mp-867528
2.4295,-1.8295200186481189,Rb16Sb8O20,mp-867570
1.2757999999999998,-1.7853618224912502,Mn12As4H16O32,mp-867573
2.8968,-1.593174728333373,Ag8H16S12O48,mp-867593
0.06540000000000035,-1.482644798749999,Li4Co1Ni3O8,mp-867640
0.8253000000000004,-1.5318118161008334,Li4Ag4F24,mp-867677
2.386,-1.917809130610632,Cs4Sn2O6,mp-867730
2.6412,-2.818792982731093,Nb3Fe1P6O24,mp-867747
4.2981,-2.8061493799811656,Rb3Ca3C3O9F3,mp-867757
0.9210999999999998,-1.257137570707167,Rb2Ta2Ge2S10,mp-867823
3.4912,-2.64568316057,Sm2Cl6,mp-867875
2.4742,-1.8538489973706904,Rb4Ba4Ta4S16,mp-867884
2.708,-3.1371682656944446,K2Na2Gd2Ta2O10,mp-867889
3.7739,-2.652634627445,Er2Cl6,mp-867891
2.0145,-1.399012248125,Sm2I6,mp-867893
1.7942999999999998,-1.8819201352170147,Sm6Si2Ag2S14,mp-867929
5.0716,-1.549497794710769,Sn2H12N4F8,mp-867938
2.6315,-0.35987101921272696,Na12H28Os4,mp-867943
1.6697,-0.7209054172943354,Rb8P4Pb2Se16,mp-867964
5.0467,-2.0352554107243033,Cs8B16H40O48,mp-867975
3.7929,-2.663596376185066,Ca2Fe6P8O28,mvc-1003
2.7485000000000004,-2.712124610216837,Ca4Mo8P8O36,mvc-10055
1.9363000000000008,-2.826764518073978,Ca4Cr8P8O36,mvc-10056
0.7037,-3.108599340333,Ba4Mg4Cu4F28,mvc-10313
1.0773,-3.136136696250001,Ca2Ho2V4O12,mvc-10337
1.1548999999999996,-2.85640323475,Ca2Ho2Mo4O12,mvc-10340
0.5718,-2.753792618583,Ba4Zn4Cu4F28,mvc-10388
0.8300999999999998,-3.209572330583,Ba4Ca4Cu4F28,mvc-10392
0.366,-2.8547797912033333,Ba4Bi4F28,mvc-10438
4.7417,-3.5568809880830004,Ba4Mg4Mo4F28,mvc-10589
2.4223,-3.713327792083001,Ba4Mg4V4F28,mvc-10590
0.3416000000000001,-2.6248167944029284,Ca2Mn6P6O26,mvc-10596
2.0027,-3.3287824595830005,Ba4Mg4Co4F28,mvc-10598
3.842200000000001,-3.1931447968330002,Ba4Zn4Mo4F28,mvc-10608
2.3929,-3.3501048230830004,Ba4V4Zn4F28,mvc-10612
1.6683,-2.967532403833,Ba4Zn4Co4F28,mvc-10618
3.2760000000000002,-3.2554042400922225,Ba4W4F28,mvc-10634
3.8838,-2.8058350476359752,Mg4Mn4P8O28,mvc-1233
2.4639,-2.8993914715384626,Mg4Nb4Fe2O16,mvc-13319
2.9977000000000005,-2.7130279987500003,Ca12Cr8Ge12O48,mvc-13324
1.5884,-2.916432731346001,La2Mn1Zn1O6,mvc-13688
1.6598999999999997,-1.7685131729519994,Co2F8,mvc-13941
0.5127,-1.142311241666666,Co4O8,mvc-14149
0.10720000000000017,-1.0924164207142857,Zn2Ni4O8,mvc-14389
4.6182,-3.821326174225833,Mg1Ti1F6,mvc-14678
2.7111999999999994,-2.575482913461538,Ca2Sn3O8,mvc-15350
1.5876,-1.8921921677675004,Zn1Ni1F6,mvc-15458
5.037,-3.2506682002675,Mg1Sn1F6,mvc-15683
4.2525,-3.3438624761008326,Ti1Zn1F6,mvc-15684
1.3477,-2.7905080177675003,Ca1Co1F6,mvc-15833
2.0974000000000004,-2.5357736765175005,Ca1Ni1F6,mvc-15834
2.0238,-2.3463885158925004,Mg1Ni1F6,mvc-15858
3.0641,-2.6498208415873026,Mg2Co2P8O24,mvc-2198
4.3902,-2.8153220416406346,Ca2Mn2P8O24,mvc-2200
3.0966,-2.716867333253969,Ca2Co2P8O24,mvc-2203
4.458900000000001,-2.606357998809523,Mg2Ni2P8O24,mvc-2204
4.2171,-2.7082643060317464,Mg2Fe2P8O24,mvc-2206
0.9943,-2.976081588346315,Ba4Mn4Cu2F28,mvc-2207
2.9583000000000004,-2.820453521309524,Ca2V2P8O24,mvc-2214
4.2926,-2.7768696088095246,Ca2Fe2P8O24,mvc-2215
4.3116,-2.6713695588095234,Ca2Ni2P8O24,mvc-2216
1.2404000000000002,-3.1143004445610534,Ba4Cu2Mo4F28,mvc-2225
0.13329999999999975,-1.7577111730769237,Mg2Co3O8,mvc-3029
0.8704000000000001,-1.58473029275,Zn8Co10Te6O36,mvc-3070
3.5894000000000004,-3.5526820174599987,Ca2Cr2F8,mvc-3299
2.6193000000000004,-2.828061271538461,Mg4Nb4Co2O16,mvc-3391
2.6147,-2.9595851000738467,Mg4Mn2Nb4O16,mvc-402
1.0632,-2.9646408123076924,Mg4Nb4V2O16,mvc-411
3.2356,-2.7649671838461543,Mg4Nb4Ni2O16,mvc-418
2.7274000000000003,-3.359844154821429,Ta4O10,mvc-4415
2.2258,-2.404387906428572,Ca2Mo4O8,mvc-4908
0.9166,-1.3636941226190478,Ca2Ag4O8,mvc-5559
0.4143999999999999,-1.1379594578571428,Zn2Cu4O8,mvc-5897
0.6485000000000003,-1.7220037842857143,Ca2Cu4O8,mvc-6101
2.0393,-2.347940169341538,Ca6Mn6As8O32,mvc-6158
0.3813999999999997,-1.509719856071429,Mg4Cu8O16,mvc-6622
0.21069999999999967,-2.528881800503248,Mg2Cu2P4O14,mvc-6731
3.0396,-2.7743373395941555,Mg2Cr2P4O14,mvc-6967
2.9967,-2.897721605157313,Ca4Ti4Ni4P8O36,mvc-8257
2.7634000000000003,-2.23503495625,Ca2Ni2Ge4O12,mvc-8346
1.935,-2.3111600442499998,Ca2Co2Ge4O12,mvc-8355
1.5785,-2.4670732343460005,Ca2Mn2Ge4O12,mvc-8589
1.9830000000000003,-3.2688803396666684,Ca2La2Ti2Fe2O12,mvc-8937
1.9772,-2.7763826725,Ca2La2Fe2Sb2O12,mvc-8959
2.6888999999999994,-3.2827207720000016,Ca2La2Ta2Fe2O12,mvc-9005
1.1943,-2.81050331725,Ca2Pr2Mo4O12,mvc-9656
1.3814000000000002,-2.244043096428572,Mg6Fe12O24,mvc-9917
1.3685,-2.3420739697619046,V12Zn6O24,mvc-9963