band_gap,formation_energy_per_atom,full_formula,task_id
0.0,-0.44143162899999877,Ho8Re4C8,mp-1184737
0.0,-0.2335882307499999,K2Hg6,mp-1185099
0.0,-0.2880687252083334,La1Eu1Ag2,mp-1185198
0.0,-0.38642840250000043,Nd1Sm1Tl2,mp-1186330
0.0,-0.36293083437499973,Pm1Dy1Tl2,mp-1186556
0.0,-0.5985862800000001,Tb2Ru1Rh1,mp-1187274
0.0,-0.4568421404166667,Tb1Ho1In2,mp-1187346
0.0,-0.2709102400000001,Zn2Cu1Rh1,mp-1187800
0.0,-0.674055355555557,Ti6Ge6Ru6,mp-1188712
0.0,-0.8547221594117644,Tb4Ge6Ir7,mp-1188834
1.4002000000000001,-1.354760656339286,Ba4Ge2Se8,mp-11902
0.0,-0.5895271115,Sm4Co6Ge10,mp-1190439
3.9149,-3.229065922045454,Sr6Li2Ta2O12,mp-1190486
0.0,-2.885684208295456,Eu6Sb2O14,mp-1190831
1.7001,-1.8815002124456515,Ba1Au2S4O16,mp-1190864
0.9007999999999998,-1.559688962630208,Sr4Gd4Cu4Se12,mp-1190889
0.0,-0.5306326485714286,Nd2Ni12As7,mp-1191002
0.0,-3.015778708286639,Rb4La2Nb4O14,mp-1191145
0.0,-0.7021751952777784,Y4V4B16,mp-1191641
0.0,-0.25593644736111126,Mg12Ti4Ni8,mp-1191806
0.0,-0.5979726595454551,Tm6Al4Ni12,mp-1191848
0.0,-0.7844961948275868,Ce3Si6Pd20,mp-1192814
3.4191000000000003,-2.2044989706609197,Cs4Mo6O20,mp-1193056
0.0,-0.7871580172115387,Nb8Co2Se16,mp-1193368
0.0,-0.45060546206896535,Hf3Ni20B6,mp-1193581
0.0,-0.19300278241379257,Hf6Zn16Cu7,mp-1194036
3.5612000000000004,-2.5125972454340277,Fe6B14I2O26,mp-1194881
1.7089999999999999,-0.8098663858701638,K8Sc4P8Se28,mp-1195538
0.0,-0.6547915750000001,Tm10Co8Si28,mp-1196159
0.0,-0.5125208904999994,Gd6Ge26Ir8,mp-1197897
4.702999999999999,-0.8985832562461666,Al8H56C16S8Cl32,mp-1198123
0.02430000000000021,-1.9486412039762495,Ba8H4Ru12O40,mp-1198408
3.3316999999999997,-1.5007537797039472,Ge2Pb4Se8O24,mp-1198509
0.0,-2.764993268588572,Ba8Eu7Cl34,mp-1198571
1.3394000000000001,-0.7253032164475579,Cs8In8Te16,mp-1199743
0.9582999999999999,-1.6632877015104173,Gd8Ag8S16,mp-1200242
0.0,-0.5397665573684214,Ho10Ge20Os8,mp-1201660
0.0,-0.2639415987735845,Er12Al86Cr8,mp-1201665
0.0,-0.8711357642105257,Tm10Si20Ir8,mp-1202399
0.0,-0.9222820806330816,Rb4V4Se8,mp-12024
0.0,-0.6964353174999994,Pr8Sb16Ir12,mp-1202719
1.8653000000000002,-1.324851304628334,K8H12Ir4N4Cl20,mp-1203386
3.3550999999999997,-2.52801709943544,Na16Fe12P16O60,mp-1203835
3.3177999999999996,-1.6030632545164285,Na40H32Br8O32,mp-1204007
0.20719999999999983,-1.0930334383180158,Cu64Se48O160,mp-1204253
0.5156000000000001,-1.715189101823892,Rb3Na1Ru2O8,mp-12046
0.0,-0.5708504640624996,Pr20Ir12,mp-1205021
0.0,-0.6550455688888887,Ho3Cd3Au3,mp-1205778
0.0,-0.40910669111111037,Lu6Fe1Bi2,mp-1205874
0.0,-0.6583149299999995,Tb2Al2Ge2,mp-1206233
0.0,-0.2439765249999999,Ce1Tl1,mp-1206755
0.0,-0.37177643888888906,Gd1In1Ni4,mp-1206797
0.0,-0.4035483722222221,Dy6Mn1Bi2,mp-1207016
0.0,-0.7178420950000003,Nd4Cd2Au4,mp-1207149
0.0,-0.3151924541379317,Zr6Be15Co8,mp-1207415
0.0,-0.8211879848809526,Yb5Co19P12,mp-1207639
0.0,-0.2481080053571425,Tm4Cu20Sn4,mp-1208066
0.0,-0.25368961259259254,Tb12In2Co4,mp-1208520
0.0,-0.5821199325000006,Sm6Al24Os8,mp-1208935
7.577,-3.915227264720536,Rb2Lu2Be2F12,mp-1209222
0.0,-0.3738447664705889,Pr46Mg8Rh14,mp-1210296
1.8253,-1.867690532444445,K8Cr2O8,mp-1211715
0.0,-0.10116531573529407,K40Tl28,mp-1212012
1.2250999999999999,-2.0485196569693938,Fe2Ni2Ag4F14,mp-1212687
0.0,-1.0562417999999998,Dy4Si4Rh4,mp-1212831
0.0,-0.6796535214285713,Er4Al18Pd6,mp-1212854
0.0,-0.5384207962500002,Er16Cd4Ir4,mp-1212909
0.0,-2.2762053702499996,Eu4Ni2Ru2O12,mp-1213246
0.0,-0.6658220649999997,Ce8Ge14,mp-1213848
0.17280000000000006,-2.2126599680000005,Ba4Li1Bi3O12,mp-1214461
3.9289999999999994,-3.4271017385648146,Ba12Tb4Al8O30,mp-1214513
3.4814999999999996,-3.0340649693055552,Ba12Lu4Ga8O30,mp-1214574
0.0,-0.5508651033333329,Yb2Zn2Ge2,mp-1215571
0.0,-0.24230404666666536,Ta3Mn8Al1,mp-1218087
0.0,-0.3921242262499983,Ta12V6Co6C4,mp-1218094
0.0,-0.40723555214285667,Sr4Li2Mg2Si6,mp-1218749
0.0,-0.5416569154166674,Sm3Ga6Ni9,mp-1219054
0.0,-0.6319110056249997,Sc4Nb6Ge6,mp-1219488
0.0,-0.08071053979166654,Mg6Cd1In1,mp-1222082
0.0,-0.7561855633333335,Lu2Ga2Au2,mp-1222319
0.0,-0.5544227962499995,Li2Ge1Pd1,mp-1222657
0.0,-0.7335124677083336,Li1Ti5Te10,mp-1222772
0.0,-0.7118037174999998,La1Ga3Pd1,mp-1222842
0.0,-0.9340118012500002,La1Ga2Pt3,mp-1223084
0.0,-2.1047148796467403,La6Cr1Si2S14,mp-1223175
1.4100000000000001,-0.5897978675052086,K8Sn8Au8Se24,mp-1223442
4.395,-3.095251233529524,K2Ca1Mg5Si8H2O24,mp-1223917
0.0,-1.0270171220511357,K4Nb6Se12,mp-1224047
2.9901,-3.4462302457833958,Cs6Ti2F14,mp-12244
2.6508999999999996,-3.6848539778769855,Gd10Si4B2O26,mp-1225149
0.0,-0.45287737799999944,Dy1Ga3Cu1,mp-1225592
0.0,-0.4418297966666671,Co1Si4Ni1,mp-1226006
1.6010999999999997,-2.1387576375000004,Cr2Sn2Sb2O12,mp-1226180
0.0,-0.3356590766666668,Ce2Ni1Ru3,mp-1226785
2.8891000000000004,-3.6434957204166682,Ca4Zr4Ti8O28,mp-1227163
0.02889999999999926,-1.1723984121428563,Bi2Pd3Pt1O8,mp-1227497
1.9034999999999997,-2.920342140476191,Ca6Ti2Fe4O16,mp-1227734
0.05010000000000003,-2.1934893875833334,Ba6Zn2Ir2Ru2O18,mp-1228233
0.0,-0.4307062106060613,Ba1B4Pt6,mp-1228679
0.0,-1.4532446979629636,Ba1V10S16,mp-1228772
0.0,-0.6548948630215381,Sr10Os4N12,mp-1247351
0.0,-0.20478775999999987,Sr4Zn4,mp-12724
0.0,-0.09496032083333301,Cu2Ge1Te3,mp-12806
0.0,-0.6941054156249997,Ho10Si6,mp-13236
0.9631000000000003,-0.9096843657142859,Ba2Li2P2,mp-13277
0.0,-0.6337634438888884,Ce3Zn3Pd3,mp-13382
0.0,-0.13557067474999984,Na4Zn2Ge2,mp-13520
0.0,-0.8805234294322347,Zr6Ni20P13,mp-14298
4.473000000000001,-3.7118563346249998,Tb12Al20O48,mp-14387
3.6091999999999995,-3.323933604583334,Pr16Ga8O36,mp-15577
0.0,-0.10262120975000011,Na2Tl2,mp-1564
0.026100000000000012,-0.39537898333333327,Sr4Mg4Si4,mp-15642
0.0,-0.40576060583333334,Sr1Al9Co2,mp-16491
0.0,-0.8431411274999991,Sc10Ge6,mp-17190
0.5834000000000001,-1.747433962487685,Cs8Ru4O16,mp-17546
0.0,-0.8279727433333335,Lu2Ir4,mp-1761
2.2958999999999996,-2.939571678147778,Ho4Pt4F28,mp-17651
4.995900000000001,-3.0406877253553835,Rb4Ba4P4O16,mp-17832
2.1738999999999997,-2.912823986964287,Ta4V4O20,mp-18137
0.5772999999999997,-0.46820398338888897,K12Na8Sn4As12,mp-18447
1.2563999999999997,-2.0304690057400006,Na1Mn1O2,mp-18957
0.0,-1.0410914162499996,Ho1Pt3,mp-195
0.0,-0.44910094500000025,Yb2Ni4,mp-1980
0.0,-0.9729947481250001,Yb10Sb6,mp-201
0.0,-0.9838256947222221,La3In3Pt3,mp-20451
0.0,-0.6744540881250005,Tb10Si6,mp-206
0.0,-0.6090870656250003,Si4Pd12,mp-20622
0.011299999999999422,-1.090387538333334,Eu2As2Pt2,mp-20732
0.0,-0.5914147887500008,Ho2Cu2Sb4,mp-21015
0.0,-0.5889947966666659,Ce4Ni4Sn4,mp-21119
0.0,-0.40890372239737344,In2Ni21P6,mp-21683
0.0,-0.12341581592105282,Na30Pb8,mp-21895
0.0,-2.22114765775,Ca4Ni2Os2O12,mp-22020
0.0,-0.7114459342708326,Hf4In2C2,mp-22156
0.0,-0.8803197293333334,Ce1B1Pt3,mp-22435
3.7435,-1.9915461172527473,Ni6P4O16,mp-22697
4.069,-3.6128457998366676,La2Cl2O2,mp-23025
0.0,-0.4022657588888884,Er6Mn1Bi2,mp-23039
0.0,-1.425614109166667,La1I2,mp-23194
0.0,-0.28988803600000007,K2Bi4,mp-23279
0.0,-0.7821081924999991,Ce1Bi1,mp-23285
5.2275,-2.8900457648463633,Ca8Cl12O2,mp-23326
4.8462000000000005,-3.1326476369918757,Na2Ca4Si6H2O18,mp-23792
2.4167,-1.0912140124422223,Co1H4Br2O2,mp-24410
0.0,-0.35793549749999976,Y1Zn1,mp-2516
0.0,-1.5436432824999997,Tb1As1,mp-2640
0.0,-0.13694557374999938,Mn6As2,mp-2668
1.312,-1.7434383327140004,As2I6F12,mp-27445
0.006299999999999972,-1.4422638170560003,K4Cu4Cl12,mp-27450
2.7154000000000003,-2.3697848855032477,Cd4P4O14,mp-27686
3.9055999999999997,-1.4424730655700002,Ga4Sb4Cl24,mp-27735
2.5146000000000006,-1.5614070471733335,Al2Cu2Cl8,mp-28020
0.9091000000000005,-0.4124692857142861,Tc8P32,mp-28026
0.0,-0.3752072147755103,K8P6,mp-28424
0.00039999999999995595,-1.1067494279999999,Pr4Ru1I5,mp-28736
0.0,-0.6543477226530621,Ba1Ni2P4,mp-28927
0.7341000000000006,-1.9492193408333338,Ga4Te2O12,mp-28931
3.0427999999999997,-2.9989838046527786,Li8Ti4O12,mp-2931
2.5892999999999997,-1.0630803772384274,Na8B8S20,mp-29411
0.0,-0.30678982048611186,Pt10Se8,mp-29767
0.0,-0.4810321555555544,Tb1Co3B2,mp-3040
0.0,-0.3365165874999998,Sr1Cd1,mp-30496
0.019299999999999873,-0.400896547166667,Sr32Ga28,mp-30667
0.0,-0.10288183812500007,Sm1Mg3,mp-30779
0.0,-0.16433588131578938,Tb24Co14,mp-30967
0.0,-0.4688352665151518,Nd2Ni5B4,mp-31029
0.0,-0.15038356666666708,Zn2Ag1Au1,mp-31171
0.0,-0.6074804105555552,Tb2Ag2Sn2,mp-31422
0.0,-0.8292055059999995,Tm1Co2Si2,mp-3262
0.0,-0.5907445257500001,Ti3Al1C1,mp-3271
0.0,-0.6650529980000002,Ce1Ni2Ge2,mp-3325
0.0,-0.34942538166666637,Hf2Fe4,mp-333
2.8582,-2.2329090680000006,Na4Ga4O8,mp-3338
5.0743,-3.6100740029262504,Er6Pb8F34,mp-34580
0.0,-0.6640627624999995,Li2Ga1Pt1,mp-3726
0.0,-0.6007308785,Sm1Si2Cu2,mp-3997
2.3613000000000004,-3.147091569730396,Cs2Ti2Co2O2F10,mp-40502
0.0,-2.7599907874419998,Ca2Pr2Mn4O12,mp-40630
0.0,-0.6149037535000005,La1Fe2Si2,mp-4088
0.0,-0.5786294929999997,Er1Si2Cu2,mp-4305
0.0,-0.8577116379999999,Dy1Si2Ni2,mp-4692
0.0,-0.6961457838888876,Er2Ti2Ge2,mp-4743
4.835500000000001,-3.39535851515625,Al8Si4O20,mp-4753
0.0012999999999987466,-0.5711734912499997,Ce1Al5Ni2,mp-4817
3.3710999999999998,-0.9692040777377772,Li12B4N8,mp-5001
2.7685999999999997,-2.54792951138889,Mg1V2O6,mp-504510
1.4650999999999998,-0.879084534811105,Cs8Sn4S56,mp-505141
0.0,-0.5847906191666669,La2Fe2Si2,mp-505332
0.0,-0.6344563197499994,Ho8Mn12Si20,mp-505335
0.0,-0.4014390968965519,Al3Ni20B6,mp-505472
0.0,-0.8077760720408165,Zr2Ni8P4,mp-505598
0.0,-0.22160971390804535,Ti5Re24,mp-518
5.4436,-2.880917630503035,K2Sm2P6H2O20,mp-542266
0.38439999999999985,-2.3509017772300003,Ba12Na4Mn4Ru4O34,mp-542399
1.9080000000000001,-1.6460288106333336,K12Na8In4O16,mp-553975
0.42469999999999963,-0.745989920781251,Tl1Bi1S2,mp-554310
3.3773,-2.9083864897178158,Rb10Nb10B20O60,mp-556808
3.3299,-2.0617769083928574,Tl8Ni16P16O60,mp-556824
2.3810000000000002,-2.8996407972416662,K12Nb12B8O48,mp-557711
2.9084999999999996,-1.2695513385795458,Sr2Li2B6S12,mp-558219
0.0,-2.418537891477274,Pr4Ir4O14,mp-558448
4.9874,-1.4854297452084377,Ni4H48S4O40,mp-559054
5.167400000000001,-2.6977819287108846,Na12B4P8O32,mp-559783
0.0,-1.3871533276111114,Na12Cu8O16,mp-559817
1.1953,-0.9634877997748219,Nb2P8S20Cl10,mp-561160
1.9689000000000005,-0.928295109770409,Y2Ag6P4S16,mp-561467
1.9101000000000001,-1.6122834875390635,Cs2Mn8Cl18,mp-567499
0.0,-0.29678613500000023,Yb2Cu4,mp-567538
0.0,-0.7345652228571424,Lu10Ir4,mp-567963
0.0,-0.20283922349999983,Nd8W4C8,mp-569275
0.0,-0.9815124936111117,La10Sn6Br2,mp-569350
0.0,-0.42813090250000024,Sm1Al2Zn2,mp-569657
0.0,-0.987785586666667,Lu3In3Pt3,mp-569848
0.0,-0.38784128166666676,La16Mg4Ir4,mp-570078
0.15839999999999999,-1.2915267980418184,W2N1Cl8,mp-570568
0.0,-0.2019821032692306,V8Ga32Cu12,mp-570621
0.0,-0.12757591333333332,Sm4Mg3Co2,mp-571606
0.0,-0.2092911074249166,Rb30Hg32,mp-581457
4.356699999999999,-3.6932427447500005,Nd2Al2O6,mp-5899
2.3659999999999997,-2.352114820348889,K2Ni1F6,mp-605034
4.0064,-1.9070257807730273,Tl8Cd8S12O48,mp-6067
0.0,-2.5277691634090913,Sr6Li2Ir2O12,mp-6071
0.0,-0.5111963603472228,Tb1Ni2B2C1,mp-6092
0.0,-0.32251459687500006,Sc2Co2C4,mp-615314
1.785,-1.9071685558312246,Cs5Nb2S4Cl9,mp-621112
3.2084,-2.8242556202999993,Na12Sc8V12O48,mp-6213
2.5863000000000005,-2.5459129180681814,Dy4Fe4Ge8O28,mp-622558
4.0949,-1.531873708261149,Cs1H3O2,mp-626417
0.0,-0.45834495578125045,Li8Y20In36,mp-638690
0.0,-0.12473759234052745,K34Zn20In85,mp-641101
4.4775,-1.9027402473063637,Li8H6Cl2O6,mp-643259
0.0,-0.43103970750000037,Ce8In12Ru8,mp-645068
4.267899999999999,-1.088518047269864,Sr24P48N96,mp-645364
0.0,-0.3208896499999998,Pr1Cd1,mp-646
1.9164999999999999,-0.8217464406631945,K4Pt2S30,mp-652663
2.0982999999999996,-1.545538642395833,La8Sb8S16Br16,mp-680334
1.5419999999999998,-2.4702843871424998,Cr1Ni1F6,mp-690539
3.1404,-2.064867838778236,Na2Gd2Re8H16O40,mp-707097
2.4647,-2.2615912518981482,Cd4B4O10,mp-7210
0.0,-0.3593503072727273,Te8Rh3,mp-7273
0.0,-0.5006607437499997,La1Hg1,mp-734
3.2604,-1.8967889680209193,Ba12In8H48O48,mp-740719
0.8676000000000004,-0.37341470207142846,Na8P8,mp-7440
0.0,-0.5327240749999996,Ba2Mg2Ge2,mp-754515
4.061,-3.257562888,Na1Lu1O2,mp-755311
0.0,-0.5219503016666666,Tb2Al4,mp-756
5.7824,-2.6466155190222596,Rb4B8P8H4O36,mp-758281
0.0,-1.5534695469000004,Na6Co8O16,mp-766225
3.3829000000000002,-3.2518368471624997,Sr8Cr4C4O12F20,mp-766492
3.3038999999999996,-3.8446899547395823,Sm8Ti4O20,mp-770806
3.1175999999999995,-2.694458121000001,Er6Sb10O24,mp-772087
2.7449000000000003,-2.797774638355001,Na9Li1Fe10Si20O60,mp-775304
0.0,-1.6650451243199231,Rb16Sb4O16,mp-779000
5.681100000000001,-3.1422448161904755,Al1P1O4,mp-7848
4.0897,-2.9663898536780438,Cs1K2Sc1P2O8,mp-8564
0.0,-0.30473526961538455,Pr1Al8Cu4,mp-862763
0.0,-0.8114099081250004,Pm1Sn1Pd2,mp-862963
0.0,-0.3007469862499992,Ta2Os1W1,mp-864650
0.0,-0.24607613749999935,Mn1Al1Os2,mp-864951
0.0,-0.8088316908333333,Tm1In1Rh2,mp-865211
0.0,-0.41487492374999935,V1Zn1Rh2,mp-865487
0.0,-0.34672978625000006,V2Tc1Os1,mp-865499
0.0,-0.22861681000000011,Ti1In1Co2,mp-865548
0.0,-0.38500517624999997,Li1Sn1Au2,mp-865710
0.0,-0.6572439800000001,Yb1Hg1Pd2,mp-865766
0.0,-0.28058468958333327,Li2Ca1In1,mp-865890
0.0,-0.76447497875,Tm1Cd1Pd2,mp-865982
0.0,-0.3436618591666667,Dy2Tl1Ag1,mp-866008
0.0,-0.19510000374999992,Hf2Zn6,mp-866108
2.3360000000000003,-1.34391811407923,La8Si16C4N24,mp-866650
0.0,-0.6222367920833332,Sc1In1Ir2,mp-867187
0.0,-0.8453375599999999,Tb2Ir1Rh1,mp-867282
0.0,-0.2607978545848212,Mn2P2Se6,mp-8695
0.0,-0.782149328750001,Ho2Co2Si4,mp-8743
0.9356000000000001,-0.3668803566122451,K4Hg1P2,mp-8753
5.263999999999999,-3.2177533148978577,Ba8Y4C8O24F12,mp-8985
0.0,-0.12392340325000006,Yb8C12,mp-9546
0.0,-0.022762506250001202,Fe4Sb12,mp-971669
0.0,-0.7215099044444445,Ho4V4B16,mp-973524
2.3727,-1.9552879221691175,Re4S4O26,mp-974650
0.0,-0.27666257125000016,Zn1Fe1Rh2,mp-977361
0.0,-0.5867078437500002,Pr2Cu2Ge4,mp-978092
0.0,-0.36299264187500135,V2Re1Tc1,mp-981377
0.0,-0.5481124246296297,Y2B8Ir8,mp-981396
0.0,-0.9274517262500002,Pm2Pt1Au1,mp-982772
0.0,-0.2939711090000003,Ce8Re4C8,mp-985704
2.864,-2.901180212975833,Nb2Ag2F12,mp-997394
2.4618,-2.7578978140175,Zn1Mo1F6,mvc-14714
0.0,-1.82925802575,Mg4Ni2Ir2O12,mvc-5800
0.0,-1.1540592599999986,Hf2Pt2,mp-1007691
0.0,-2.0526160193750003,Lu2S4,mp-1018792
0.0,-0.5581136858333338,Sm2Zn2Ga2,mp-1019257
5.402900000000001,-2.811276941045918,Li16B24P8O64,mp-1020015
3.8130999999999995,-2.6860230281410256,Sr4Ge8B8O32,mp-1020611
0.0,-0.623638099107143,Ho2Re2Si2C1,mp-1025320
0.0,-0.6230785184374996,Zr4Tl2C2,mp-1025524
0.0,-0.6256530144444447,Sc6Fe1Te2,mp-10445
0.0,-0.8208971239999997,Eu1As2Pd2,mp-1069444
0.9321999999999999,-0.786220458137931,Rb2Te2Pt1,mp-1070498
0.0,-0.868887300833333,La2Sn2Au2,mp-1071260
0.0,-0.5875532705555552,Yb2Ag2Bi2,mp-1071555
0.0,-0.9223050874999998,Er2Ge1Rh3,mp-1076961
0.0,-0.6944571892559525,In2Rh3S2,mp-1077883
0.0,-0.5606740479999999,Sr2Sn4Au4,mp-1078411
0.0,-0.12419884374999945,Mn4Ge4,mp-1078464
0.0,-0.6735824797500001,La3Sn7,mp-1079273
0.0,-0.9294875504999993,Nd2As4Rh4,mp-1079355
0.0,-0.510511675937499,Nb4Ga2C2,mp-1079546
0.0,-0.92469685875,Pr2Si4Rh2,mp-1079815
0.0,-0.5638182399999998,Ho2Ni2Ge6,mp-1079921
0.0,-0.2498832041250001,K1Cd4As3,mp-1080452
0.0,-0.6297114100000003,Tm3Al3Ni3,mp-1087523
0.0,-0.04664160638888889,Zn8Ag4,mp-1093999
0.6114999999999995,-1.2445237383333339,Ba2Tb2Cu2Te6,mp-1095403
0.0,-1.1094173566666672,Dy4Ga4Pt4,mp-1095583
3.4958,-3.8794935773863646,Tb6Ta2O14,mp-1101314
0.0,-1.0535160748090284,V3Ag2Te1S6,mp-1102112
0.0,-1.1455281896031753,Ti4Co4P4,mp-1102138
0.0,-0.28904051250000035,Dy8Al4,mp-1102728
0.09289999999999932,-0.7190547081411641,Cs2Mo6Se6,mp-1104663
0.0,-0.3644025473333343,Mg4Co2B4Ir10,mp-1106047
0.0,-1.8362042975390622,Ce4Sn2S10,mp-1106406
0.0,-0.8971896374999999,Er2Au2,mp-11243
0.0,-0.31034677166666685,Ho1Cd2,mp-11301
0.0018000000000002458,-0.34029437833333276,Lu1Ni5,mp-11491
0.0,-0.8529341337500002,Sm1Al3Pd2,mp-11539
1.4586000000000001,-1.791981786041666,Cu8Re8O32,mp-1181782
0.0,-0.6191008037499994,Ca1Tb1Rh2,mp-1183546
0.0,-0.8535672212499996,Hf1Zn1Rh2,mp-1184580
0.0,-0.4572369104166665,Gd1Er1In2,mp-1184762
0.17239999999999966,-0.3606854295833335,Li2In1Bi1,mp-1184972
0.0,-0.34379588937499994,La1Lu1Tl2,mp-1185069
0.0,-0.2961631575000001,Yb1Eu1Zn2,mp-1187727
0.0,-0.4281595249999999,Zr1Ga1Co2,mp-1188052
0.0,-0.4447591128333343,Nb6B4Ru10,mp-1189385
0.0,-0.44407386437499996,Nd4Zn10Sn2,mp-1189924
0.0,-0.5798395027777788,Dy4Ni4B16,mp-1190599
0.0,-0.5631578877777782,Tm4Ni4B16,mp-1190739
0.18340000000000023,-0.4098601041666665,Ho16Ga6Co2,mp-1191834
0.0,-0.65660546409091,Dy6Si4Ni12,mp-1191905
3.3618000000000006,-2.6918434139999996,K2Ho2W4O16,mp-1192188
0.0,-0.32920902458333323,Nd16Ga6Co2,mp-1192259
5.1796,-1.623192049264959,Cs4P4H8O8,mp-1192733
0.0,-0.7540951551724132,Ti6Al16Ir7,mp-1193121
0.0,-0.7916908460714284,Eu12Sn8Pd8,mp-1193516
1.4314999999999998,-1.9481686681250001,Sr4Er8Se16,mp-1193520
0.0,-0.63997500137931,Zr6Al16Ni7,mp-1193679
0.0,-0.4884617535714284,Tb4Ga18Co6,mp-1193699
0.0,-0.5737255027586206,Zr6Al16Co7,mp-1194423
4.4331,-3.347512879085001,Ca2La2Mg2Al4Si6H2O26,mp-1195311
4.751099999999999,-3.5862001983072913,Pr24Si16B8O80,mp-1196034
0.0,-0.6403557956250001,Er12Ga20,mp-1197972
0.0,-0.7074869872222236,Er8B24Ru4,mp-1198465
0.0,-3.19569574331611,K8Eu4Si16O40F4,mp-1198799
0.0,-0.8251618640476184,Gd4Co20P12,mp-1198946
0.0,-0.6831992335714283,Tm22Sn20,mp-1199158
0.0,-0.8887973169642862,Sm6Co18P12,mp-1199867
0.0,-0.17445135880208368,Ag8Pd24Se8,mp-1200271
0.0,-0.41725908638888853,Hf24V16Ga32,mp-1200384
4.4323999999999995,-3.310624619138889,K8Hf8O20,mp-1201301
1.2913000000000001,-2.3430796109520005,Tc8F32,mp-1203061
0.0,-0.6189912705000005,Lu8Mn12Si20,mp-1203732
1.4308,-1.897269164216216,K2Pd1S8O26,mp-1203991
0.0,-0.4610067157499991,Yb6Sn26Ir8,mp-1205086
0.0,-0.3971264806578954,Sm2Ni24B12,mp-1205147
0.10899999999999999,-2.2217515507411765,Gd6Co1Cl10,mp-1205464
0.0,-1.0248050931818184,Er7Te2Pt2,mp-1205780
0.0,-3.0979265787500005,Ba2Ho1Mo1O6,mp-1205837
3.7457000000000003,-1.6389000780689655,Rb2Sr2I6,mp-1205862
0.0,-0.6868771383333327,Li3Lu3Ge3,mp-1205878
0.0,-0.692842656111111,Ho3Mg3Pd3,mp-1205936
0.0,-0.45753321724137874,Cs1As2Ir2,mp-1206348
0.0,-0.7334579508333334,Nd2Si2Ni2,mp-1206381
0.0,-0.5356311768750004,Y10Ni4Sb2,mp-1207758
0.0,-0.5592162956249993,Y12Ir4,mp-1207785
0.0,-0.3614501061111118,Tm12Co4Sn2,mp-1208052
3.1776999999999997,-3.5512834310294448,Tb2Ti2Cl2O6,mp-1208319
0.0,-0.8980252329166666,Tb8Si12Pd4,mp-1208531
0.0,-0.3714769215789482,Tb12Ni6Pb1,mp-1208738
0.0,-0.5046447298214284,Sm2Al16Si2Au8,mp-1208872
3.9843,-3.8095347036250002,Sm12Sc8Al12O48,mp-1209040
7.529,-3.920717070831648,Rb2Tm2Be2F12,mp-1209090
0.07580000000000009,-2.508338490739055,Rb4Ga4Ag4F24,mp-1209226
0.0,-3.07941900864774,Rb2V1F6,mp-1209267
0.0,-0.6210654899999998,Pr6Al24Ru8,mp-1209381
3.3962999999999997,-2.486963418333333,Pr2Tl2W4O16,mp-1209389
0.0,-0.8434243178571421,Nd4Al18Ir6,mp-1209890
0.0,-1.46257312965625,Na1Tm1Pd6O8,mp-1209959
5.406899999999999,-3.111210184699404,Na2Ca2Al2P2H2O10F4,mp-1210199
0.35330000000000006,-0.2818062454999996,Re12Br28,mp-1210365
2.5364999999999998,-2.995272960793334,Li2V2Cd2F12,mp-1210866
0.09609999999999985,-1.1575617611309528,Li1Cr4In1S8,mp-1211182
4.972300000000001,-2.9678699128775503,Na24Ho8P16O64,mp-1211201
5.233499999999999,-2.725548852725,K4Sr8Cl20,mp-1211382
1.1305999999999998,-2.6491445880374997,K4Eu8Cl20,mp-1211620
4.9508,-0.33328151640944387,K6Tc3H27,mp-1211633
4.7976,-2.318563213880952,K12Li12W12O48,mp-1212005
0.0,-0.21235360041666654,Ho16Mg4Ni4,mp-1212308
0.0,-0.5996436044537812,Gd1Fe4P12,mp-1212761
0.0,-1.0462816458333333,Er4Ni4As4,mp-1212933
0.0,-0.15774023333333353,Er16Mg4Co4,mp-1212959
4.9106,-2.5662678167142237,Cs8Ho4Cl20,mp-1213722
0.0,-0.8924224255027259,Ce2C3N6,mp-1213867
0.0,-0.9755601623408326,Ce6Cr20N22,mp-1214072
2.4311999999999996,-3.294052169314001,Ba3Ta2Mn1O9,mp-1214505
2.0679,-2.412059665798871,Tl4Mo8P12O52,mp-1217181
0.0,-1.1071320959999995,Tb1Si2Ir1Rh1,mp-1217476
0.0,-0.5093792426785717,Sr1La1B12,mp-1218188
0.0,-0.45244420625000004,Sr2Ga1Si1,mp-1218812
0.0,-0.5531031235714288,Pr2Zn1Bi4,mp-1219845