band_gap,formation_energy_per_atom,full_formula,task_id
2.279,-2.1796306084062507,K1Nd1S2,mp-1006885
1.7987000000000002,-1.0479084436691808,Cs2Se1,mp-1011695
1.7517000000000005,-2.5176175985739806,Na4Mo8P8O36,mp-1013843
5.6243,-2.8913290532813924,Cs4Na4Sr2B36O60,mp-1019611
2.0359,-0.9471320870962492,K16Nb16N32,mp-1029504
1.5653999999999997,-1.176543076098461,Sr10Si4N12,mp-1029868
1.5737,-0.6604055985419508,K30W14N38,mp-1030950
2.0369,-2.3617471384090907,Sr6Cd2Pt2O12,mp-10392
3.708,-3.803409630750002,Nd16O24,mp-1045
1.0786999999999995,-1.7132316401562508,Nd4Cu4S8,mp-10495
0.10170000000000012,-0.7064451299999994,Sr2Ga4Rh4,mp-1078231
0.4314999999999998,-2.3839340517500007,Ba2Zn1Te1O6,mp-1078410
0.0439999999999996,-0.270621867222222,Dy1In1Cu4,mp-1080384
0.06389999999999985,-0.21191990410000014,K2Mg5Sn3,mp-1087476
0.5519999999999996,-2.176221403541668,Tb4S8,mp-1103226
0.2706999999999997,-1.2274667835,Tb7Co1I12,mp-1105706
0.3769,-0.7258644824999998,Y6Cu6Sb8,mp-1106051
1.0006,-1.998128773031251,K2Tb4Cu2S8,mp-11605
2.2057,-2.953428360714286,Nd4Hg2O8,mp-11691
0.9477000000000002,-3.2654425715000004,Er2Te1O2,mp-1178355
0.09729999999999972,-0.014661009333333178,Mg149Tc1,mp-1185636
3.0377,-1.5175424531800763,Cs6Cd2Br10,mp-1188465
0.0942999999999996,-1.2802591692500005,Ho7Pt1I12,mp-1188549
1.9609999999999999,-0.7020488570349994,Zn8N4Cl4,mp-1189171
1.0211,-0.821894303046875,Zr2Tl4Pb2Se8,mp-1189464
2.5105000000000004,-2.9449911531521757,Ba3Ta1Fe3Si2O14,mp-1190340
1.8506,-1.213012362951999,Sr2Be4N4,mp-11919
1.3895,-1.9489117099107145,Ba4Lu8Se16,mp-1192674
1.2446,-0.8684472644458131,Cs12Sn4Te12,mp-1193021
2.7025,-2.0263914770059994,Mn8Si2Te2Br4O14,mp-1193463
1.9096,-2.5831079160714294,Ho4Mo4Br4O16,mp-1193901
0.1412,-2.7000229449089144,Cs4Ti2Cu6F24,mp-1195388
3.4099000000000004,-2.1547460340549995,Cr2Si2H16O8F12,mp-1196749
2.7809,-2.691074953261868,Rb4Cr4P8O28,mp-1196895
1.0272000000000006,-1.2736815470566667,Li4Eu8C4I12N8,mp-1200887
0.6230000000000002,-1.4796007660197372,Ga8Cu4Se16O48,mp-1201552
2.7093,-0.4748883157886903,B4P4Br24,mp-1201622
3.4059,-3.0257964856457704,Li2Ca4Mn4Si10H2O30,mp-1202461
3.8997,-1.9402645935480949,Cs8Ni8Mo12O48,mp-1203005
4.8775,-2.7935394553725,Ca8As4H16F52,mp-1203188
4.1968,-2.8188839755676787,Y12Se8Cl4O32,mp-1204472
0.11770000000000015,-1.3049332674999998,Tb7Pt1I12,mp-1205326
3.4901,-2.689714298514,K1Tl2Cr1F6,mp-1205672
3.4876000000000005,-3.4949602757500005,Ba2Pr1Ta1O6,mp-1205686
1.8805999999999996,-1.5364846394999994,Sb2Pb2Br2O4,mp-1206466
1.0332,-2.5608054749898623,Cs2Rb1Cu1F6,mp-1206535
2.0223000000000004,-3.438369049218751,Lu2Se1O2,mp-1206825
1.9469,-1.47718252157125,Nd2H2Se2,mp-1207192
0.16439999999999988,-2.018712630030476,Zr12Mn2Cl28,mp-1207560
0.027099999999999902,-0.5620031962500001,Tb20Co4Bi8,mp-1208603
5.8916,-2.6127389966946035,Sr2Ca2B22H14O44,mp-1208782
3.611,-2.611582056903736,Rb4Y4Mo8O32,mp-1209254
0.9825,-0.5679322320348419,Rb4Bi12Se20,mp-1209327
3.36,-2.7301643911453204,Rb3Ho1V2O8,mp-1209368
1.0129,-0.9762871358908042,Rb4Fe4Br16,mp-1209606
1.1332,-1.992818765167,Na2Mn8As6O24,mp-1210122
4.6563,-2.5430954557000005,Na2Nd2C4O12,mp-1210138
2.4369,-3.2071209891002224,Na8Zr4Ti2Mn2Si8O32F4,mp-1210325
6.2361,-3.719457876120909,Na4Mg2Sc2F14,mp-1210466
4.4442,-3.543208180597827,Li4Lu10B6O26,mp-1210908
1.2071,-1.5083974713400004,Li4Fe4Cl16,mp-1210931
0.8903000000000001,-2.5089525407894744,Gd2Cu1Ge4O12,mp-1212638
1.0612,-2.60318978527625,Dy4Mn4Fe4O20,mp-1212984
0.2806999999999995,-0.5995886573469384,Dy2Zn6P6,mp-1213039
2.2819000000000003,-1.9223749657208618,Cs2Nb2Cl12,mp-1213080
5.3108,-2.65428918769738,Cs4Sr4Cl12,mp-1213084
4.5622,-2.6817389574026897,Cs4Ho8Cl28,mp-1213367
0.015499999999999847,-1.2625827329810897,Cs2Pr10Ru2I17,mp-1213729
3.7948,-2.5061810005853,Cs12La4Mo12O48,mp-1214521
1.6029,-1.169276705,V1Ag3Hg1O4,mp-1216423
2.4452,-2.8839382209895827,Ti4Nb4Tl4O20,mp-1216909
1.1933000000000002,-2.6221174908793285,V24P18O90,mp-1217594
1.2977,-3.13847016075,Tb4V2Fe2O12,mp-1217726
4.0292,-3.2648216967407415,Sr18In2P14O56,mp-1218791
3.2092,-2.2648272193537413,P6Pb10Br2O24,mp-1220062
1.5842999999999998,-2.8752872205681825,Nd4Fe2Sb2O14,mp-1220431
1.0382999999999996,-0.8226712575079367,Na8Sr12P16,mp-1221315
1.0124999999999995,-2.4402789795238102,Li2Ti2Rh2O8,mp-1222352
4.5858,-0.3570487281630305,Li2Sc2B8H32,mp-1222578
2.7446,-1.3196059205576005,K2Mn1H4I4O14,mp-1223747
2.2925,-3.0463935303718777,Cs2V2Zn2F12,mp-1225824
5.6322,-2.3888647369342437,Be2B1H3O5,mp-1227442
0.2353000000000005,-2.8668022352651508,Ca4Pr8Mo12O42,mp-1227629
2.4046,-2.80161236209764,Ba26Ca4Re18Cl6O90,mp-1229338
4.7092,-2.929749668852116,Rb4Sr2P4O14,mp-14354
0.2120999999999995,-0.6719185649999999,Ba2As12Pt8,mp-14501
3.6565,-2.7008436903809523,Na8Hf4Ge6O24,mp-14526
7.2179,-3.4868087773140006,K4Li2Al2F12,mp-15549
1.1321,-1.4199272552377775,Ag2Au2F8,mp-16060
0.9287,-0.5698953866875005,Na4Ag12S8,mp-16992
2.2333,-1.0291691044843745,Na8Al8Se16,mp-17060
5.0221,-3.1556164953073225,Rb4Y4P8O28,mp-17897
0.7408999999999999,-0.4158186391666669,Na20Si4As12,mp-18139
3.7028,-2.525436959283955,Rb4Zn4P4O16,mp-18463
2.9572,-2.4868652087500007,Ba4Cr4O16,mp-18571
2.1468000000000003,-2.9495209270454548,Sr6Dy2Rh2O12,mp-18651
4.5619999999999985,-2.557759906620691,Cs4Pr4C8O24,mp-18698
2.0246000000000004,-1.9808424707619048,Ag8P8O24,mp-18702
3.6132,-2.59031296525,K1Sc1Mo2O8,mp-18837
1.1011000000000002,-2.64322060852125,Sm4Mn8O20,mp-19358
2.8552,-1.8815075400000008,Ba1Ni2As2O8,mp-19388
0.2161,-0.8909779633333331,Lu1Ni1Sb1,mp-20185
0.00399999999999956,-0.24723049500000016,Gd1Tl3,mp-20503
0.9921,-1.5448620938750004,K2Co2O4,mp-20528
0.03059999999999974,-2.4280730022063146,Ce2Mn4Ge8O24,mp-21635
2.2202,-2.805578454166668,Nb8Fe4O24,mp-22366
0.4641000000000002,-0.6091734976562506,Cu4Bi4S8,mp-22982
1.3584,-0.3789421858072921,Ag4Hg4S4I4,mp-23140
0.3607,-0.5281958187499995,Li3Bi1,mp-23222
4.5642999999999985,-2.9627118403009085,Sr8Cl12O2,mp-23321
5.3109,-1.6630716856667709,Na4Al4H96S8O80,mp-24046
3.6738,-1.7780465399261538,Ni1Sn1H12O6F6,mp-24577
3.2874,-3.097068944375,Sr1O1,mp-2472
1.2007,-0.8336755246250007,Ga4Te2S4,mp-27255
3.9651,-2.593747557744706,Sb8Te4F56,mp-27473
0.4340999999999999,-1.1540219304444443,Na2Pd3O4,mp-27562
1.4182,-0.16585130605820098,Ge38P8Br8,mp-27625
2.3327,-2.4229051316590926,K3V5O14,mp-27704
0.8992,-0.3404413758333333,Pd8Br16,mp-27857
5.7442,-0.2952506211707928,Hf1B4H16,mp-28040
0.9417,-0.6914001292222226,Na16Sn4Te16,mp-28108
0.7792000000000001,-1.4541159693690475,Na36Cu12O36,mp-28556
1.7828,-0.8693389866352366,Cs4Sb4S24,mp-28701
4.6395,-3.2399008210714286,Mg8Si4O16,mp-2895
2.3229,-1.5077419760909092,K8Mn2Br12,mp-29637
5.0121,-1.097325094361251,Er2Cl6O24,mp-29888
3.2547,-0.6723465387500003,Al4I12,mp-30930
0.5969000000000002,-0.4154009158149998,Cu4Te8Cl4,mp-30971
2.9474,-2.2737467055595246,Na12B4O12,mp-30975
1.8496,-1.7407698901249995,K2Bi2O4,mp-30988
0.2188000000000001,-1.5561342898508332,Ag2Pd2F12,mp-31215
3.7052,-2.3349847319687504,Sr2Se2O6,mp-3395
0.15169999999999995,-0.3693846001249996,K4Na2As2,mp-34127
4.0074,-2.377029436190476,Sb2P2O8,mp-3439
3.8127,-3.827425005357142,Sr4Tm8O16,mp-3446
5.0863999999999985,-2.739331978537144,Li4Ni2F8,mp-35759
2.4348999999999994,-2.554746997142857,Mg2Ga4O8,mp-38951
2.7893000000000003,-3.04422465602,K2Na1V1O1F5,mp-39843
3.512,-2.171133413515625,Sr4Se4O16,mp-4092
2.7946,-3.2067396898354548,Na2Ca2Nb4O12F2,mp-42255
0.0472999999999999,-0.5861791306249994,Zn2Cr4Se8,mp-4697
0.01639999999999997,-3.4961476686111106,Eu4Ta8O24,mp-505434
3.7041,-0.6989875677563546,Rb4P16N28,mp-505496
1.4657000000000002,-0.9072178786927084,K8In8Se16,mp-505700
1.1757,-0.4631689050000001,Ba6As28,mp-524
1.7944,-3.4300283117014283,Ba4Mn4F20,mp-540958
3.7563,-2.0657654708149518,In4S6O24,mp-541450
4.3231,-2.084927351305148,Ga4S6O24,mp-541451
2.6429,-2.3732401341875,K16Cd8Si8O32,mp-541538
1.9854000000000005,-1.7570243882767242,Cs8Tl4Cl20,mp-541696
1.6267000000000005,-0.5128745372263258,K4B4Se14,mp-542637
2.7136,-2.37416794525,Ba2Te2O6,mp-5431
5.5324,-3.6808510642377774,K4Zr2F12,mp-5450
1.1957,-1.6637642855555548,Cr3Ag1O8,mp-546111
2.6581,-1.5394917804074986,Co4As2Cl2O8,mp-551131
1.6715999999999998,-1.2824627066178156,Cs1K2Co1O2,mp-551244
4.4267,-2.32654850731527,Cs1Li1Mo1O4,mp-551629
5.3537,-2.8522361317803018,K10B38O62,mp-554996
4.8297,-3.05402410625,Sr4Li16Ca4Si8O32,mp-555089
3.6831,-2.9887210252437493,K16Fe8F40,mp-555579
3.1497,-1.6604270627416668,K12Si4S12O2,mp-555596
3.1922,-2.670063113846155,Dy4Hf4Mo14O56,mp-555720
3.1191,-1.7017651401923075,Si4Pb16Br16O16,mp-556172
0.9331,-1.092428349609375,Cd2Hg4Se2O12,mp-556369
5.1347000000000005,-3.3426891931477787,Ta2Pb2F14,mp-557163
4.4434,-2.918903277066091,Rb4Na4Si8O20,mp-557656
3.0773,-2.735212613455379,Cs2Tl1Bi1F6,mp-557664
2.1812,-1.2724934999511497,Cs4K8Au4O8,mp-557807
1.5417999999999998,-2.994216660328965,Rb2Na1Mn1F6,mp-558050
1.4068000000000005,-0.9681252200648152,K4Ag4Ge2S8,mp-558500
3.1865,-2.2638358074074083,Li2Mg2In2Mo6O24,mp-558897
1.3599,-2.643396232911765,Na4Fe12Si12O40,mp-559532
4.8256,-3.20109767756,Ba4Na8Nd8Si16C4O60,mp-559586
1.929,-0.940583635599406,K8Cu4P12S36,mp-559644
3.5587,-2.2009135566687497,Na4La4Se8O24,mp-559903
5.0817,-2.6790477593968665,Cs2Zn2B2P4O16,mp-560244
2.8431,-3.0365566746424992,Cr2F6,mp-560338
2.64,-2.9628842255088865,Ti6In2Si2P12O49,mp-560564
4.8424999999999985,-2.5965658548674067,Ba2Ni7F18,mp-560626
2.8160000000000003,-2.077804116288,B12Pb24Cl4O40,mp-560833
2.9462,-2.7868573504719043,Rb12In4Co4Si18O52,mp-562801
2.6955,-0.9434605146135904,Ag8B48Cl48,mp-567334
0.2906,-0.2812264251149432,Rb2Sb4,mp-568018
0.242,-0.1565714432,K4Ga6,mp-568052
2.3743,-0.8126440418750001,Tl2Sn4Br10,mp-568244
1.068,-1.7809567137442153,Cs2Nb6Pb1Cl18,mp-569465
0.2538999999999998,-1.1311856816666668,Ba12Si4I8,mp-569842
0.2589000000000001,-0.942077961476,Sr3Bi1N1,mp-570008
2.6391,-1.9128164577678568,Tl6P2O8,mp-5709
1.3539,-0.8080993934061536,Sr10Ge4N12,mp-571046
2.3516,-2.0697130551611496,Cs2Au2F8,mp-572767
2.1903000000000006,-1.464897489136172,Cs12Sm4P8S32,mp-572833
0.8239999999999998,-0.200103566909814,Cs16Pb36,mp-574070
0.008899999999999686,-0.07241597427777814,B13C2,mp-576
2.7391,-2.275915901432291,Gd4Mo2Se6O24,mp-582378
5.9678,-3.077080438405379,Cs4Na2Ga2F12,mp-6163
3.8434,-1.5032092861266666,Sr2H32O20,mp-625801
0.23509999999999964,-0.2311597506250003,Ga12Fe4,mp-636368
5.5486,-2.65276127584375,Na2Nd2S4O16,mp-6455
2.7802,-2.0404066624999992,Tl4Cr4Mo8O32,mp-645568
0.7419000000000002,-2.0045660324062498,La12Lu4Se24,mp-645695
3.8627,-2.1696708160384617,Na12Mg4C8Br4O24,mp-646116
3.9839,-3.0682948148235285,Ba32Na8B24O72,mp-6575
2.8921,-1.4962783852586203,Cs6Tm4I18,mp-669308
0.4398999999999997,-1.1439281342083334,K4Nd12Te32,mp-669359
4.0103,-3.4084955566081567,Na3La9B8O27,mp-6760
3.4126000000000003,-2.111840442437501,K6Sn4S6Br2O24,mp-676501
1.5043,-0.7102292188515444,Re12Se28Cl28,mp-679999
1.105,-1.0229097636016666,Al8Se32Cl32,mp-683984
2.1268,-0.7555584612083337,In32Br48,mp-685014
1.5525,-0.9678389237142854,Hg4H4N4O16,mp-696272
1.9877,-2.3298427337122094,K32V8S24O108,mp-704408
0.6695,-0.4582355977499999,K8As8,mp-713
0.4513999999999996,-0.6478454361363641,V4Cu52Sn4As8S64,mp-720486
1.9307,-1.2301297090988956,Na10Zn7Sn7H24S26O12,mp-720670
1.4633,-0.8501514006964288,Li20Si2P4Se24,mp-721253
3.069,-0.543098417422,Li12H24Ir4,mp-722890
5.327000000000001,-2.846662451180408,Ba4Ca4P8H8O32,mp-733968
2.2587,-1.5451647222997498,K2Fe4H2Se8O24,mp-735586
2.3865,-2.5613700897876566,Sr4Fe12P16H4O64,mp-746739
0.5906,-1.0212599696666669,Na1Ag1O2,mp-754326
0.9707999999999996,-2.391935582386365,La4Pt4O14,mp-755026
1.2066000000000003,-2.411896351477274,Sm4Pt4O14,mp-756148
2.4248,-2.3290336432792054,Li2Fe2P2H2O10,mp-756507
3.1491,-2.4017155165185184,K8Ti2O8,mp-756510
1.477,-1.5162913678286638,Rb8Sn2O6,mp-756570
2.1071,-2.178851572825575,Cs2Mn2H8O4F8,mp-758775
4.0776,-1.6899255043411692,Zn8P8H32N8O32,mp-759413
4.0529,-1.8358291487782024,Rb4Na2Zn4H10C8O28,mp-766230
4.5253999999999985,-2.547594168126374,Na6Mg2P2C2O14,mp-768154
3.8957000000000006,-2.140690826826984,Na12Mn4C8S2O32,mp-770525
3.6282,-3.3272125844444447,Dy8W4O24,mp-770559
1.6705,-2.687394018437501,Ba6Sn4O14,mp-770846
0.1563,-1.8168670099402573,Mg1Cr3Se3S3O24,mp-773053
1.8116,-1.6308476373500007,K8Li12Ni4O16,mp-774432
1.8374,-2.4479202383925003,Mg1Pd1F6,mp-7921
1.4380000000000002,-2.12729151237755,Na2Hg2P2O8,mp-8153
3.9557,-2.544364178786718,Cs4Li4Ti2O8,mp-8294
3.7682,-0.8944007876770836,In2H18N6Cl6,mp-849391
1.4663999999999997,-2.519150294464286,Yb4Er8S16,mp-865865
1.7616,-2.2486041504460714,Sm8Au20F84,mp-8778
1.0464000000000002,-0.32688557857142897,Al2Te5,mp-9254
1.506,-1.458289436428571,Ba2Au4O8,mp-9297
0.835,-0.7230342909620452,Rb4Sn4Se10,mp-9322
1.1930999999999998,-1.3652429728163793,Cs2I1Cl6F1,mp-989516
2.1585,-0.7483236502499999,Li2S8,mp-995393
0.9551,-1.0433310355416667,K2Ag2O4,mp-997088
2.6844,-2.6183463639060003,Mn1Tl1F3,mp-998762
0.4091999999999998,-1.9727558070226656,K12Mn16O32,mp-1003764
4.175,-2.648392094308832,Rb12Zn4B20O40,mp-1020643
2.5726,-2.038754201686112,Sr8B4N8F4,mp-10234
1.7687,-0.4289147183333333,Cd1Ag2I4,mp-1025377
1.6913,-0.4035478739520002,Li2Sn1N2,mp-1029385
0.0466000000000002,-0.5839398216326528,Pr2Zn6P6,mp-10333
0.7058999999999997,-0.9442252449999998,Ba2Li2Sb2,mp-10485
0.26739999999999986,-0.4808754660000002,Yb1Mg2Bi2,mp-1068042
0.07730000000000015,-0.4141707350000008,Ga4Ru2,mp-1072429
0.9570000000000004,-1.9713940627975,Ba2Cd2As2F2,mp-1095151
3.1212,-1.5734865818660717,Ba4P4S12,mp-11006
1.1332,-0.9942079008118284,Cs1Cr1P2S7,mp-1103473
0.6142000000000001,-2.326939275775238,Na4Ag2F8,mp-1104717
2.9164,-3.403995072,Sm6Fe2O12,mp-1105484
0.03969999999999985,-0.19847041062500012,Sm12Ni4,mp-1105945
3.0991,-1.70138918655,K2Na1Sc1Br6,mp-1111649
2.0832,-2.615378642314,K2Li1Ir1F6,mp-1111926
5.1066,-2.50777352199738,Cs2K1Y1Cl6,mp-1112690
3.5693,-2.209560418864046,Cs2Tm1Ag1Cl6,mp-1113440
4.774100000000002,-2.6906277794444446,Li8Si2O8,mp-11737
0.049100000000000144,-1.579598862941176,Tb6Co1Br10,mp-1188309
2.9665000000000004,-2.41393999122024,Nd2Co1Te2S2O14,mp-1190341
1.1599000000000002,-1.9775236841396109,Hg2P4Pd2O14,mp-1190352
1.1579999999999997,-2.7061148922463643,Pr3Mn2Sb3O14,mp-1192218
2.9814,-2.5326855145127545,K2Co2P6O18,mp-1192408
1.1231,-1.5619891271257142,Y12Te12N4,mp-1193658
5.6392000000000015,-3.5873980532499994,Er6B6O18,mp-1194043
1.5650999999999995,-2.479206488750001,Ca4Er8S16,mp-1194059
1.7919999999999998,-1.1174876565069451,Na10Ag2Ge4S14,mp-1194446
2.1926,-1.1620642641810346,Rb12Sb8Br36,mp-1194576
4.4764,-2.861247315478927,Cs8Li4Nd4B8O24,mp-1194993
3.7247,-2.50148503274705,Rb2Na4Fe6P8Cl2O28,mp-1195661
4.8291,-3.63810497609375,Ba2Er4Si6O20,mp-1195744
1.3218,-0.36670741499999976,Mg24Sb16,mp-1196139
3.8089999999999997,-3.1259503184523814,Mg20Ta4B12O48,mp-1196921
1.929,-0.3118737614004224,Rb12P44,mp-1197062
2.113,-2.687713277627552,Re2Si4P6O30,mp-1197149
0.05740000000000034,-0.7926591561111115,Li4Pr16Ge16,mp-1197150
0.9577,-2.093310233520833,Nd12In4S24,mp-1198756
3.177,-1.0556872616540955,Cs8B18S18,mp-1200467
3.1506,-1.2670626856800764,Cs12Zn4I20,mp-1200647
3.8422,-1.3837277532136654,Mg4H72I8O36,mp-1200673
1.6664,-2.228416557622211,Dy4Mo6H4Se4O34,mp-1203751
1.4176000000000002,-0.9793219624107142,La8Tl8Ge8Se32,mp-1204033
1.2885,-2.5063725239524195,Na28Mn20P12H24O60F52,mp-1205264
3.7711,-1.93248448746875,Ba4Zn4Se8O24,mp-1205399
0.7011000000000001,-0.5245521608333334,Hg32Br12O16,mp-1205446
0.6878000000000002,-1.5395383409999999,Y4Br6,mp-1205567
0.5791,-0.3987649650000001,Tl4Co2I8,mp-1208175
2.7477,-1.9217143212499996,Tl4Bi4Mo8O32,mp-1208190
0.02510000000000012,-0.33377539698113234,Tb12Nb8Al86,mp-1208499
3.4371,-2.0218086429193605,Rb4Pr4Se8O32,mp-1209454
0.9535999999999998,-1.5264116557065208,Sm4Ta24Br52O12,mp-1209869
3.1420000000000003,-2.370172086180556,Nd2Ag2W4O16,mp-1210051
7.1653,-4.002347354626667,K4Nd4F16,mp-1211343
6.3089,-4.359811578425555,La2Hf2F14,mp-1211388
5.6898,-2.684769003218749,K4Sm4S8O32,mp-1211618
3.4152,-2.7421097847389166,K2Rb1Y1V2O8,mp-1211701
1.1943,-1.5126652467608324,La16C4I24N4,mp-1211788
1.2396000000000005,-1.3393780606763637,Ho14C4I24N2,mp-1212285
1.7623000000000002,-1.415875426029786,Fe2Co3H4Se6O20,mp-1212758
4.5773,-2.67878448015269,Cs4Er8Cl28,mp-1213445
2.2028,-1.5456224820075,La4N8Cl20,mp-1213500
0.5388000000000002,-1.3211462969980243,Cs2Tm2Mn2Se6,mp-1213648
0.07819999999999983,-3.4367741646759247,Ce2Ta14O38,mp-1213884
0.4925000000000006,-2.9817574725833347,Ti2V2O6,mp-1216763
0.3148,-1.66389539792346,Tb24Se45,mp-1217676
3.0034,-3.152645825709876,Ta6Ti1Tl2O18,mp-1218099
0.7976000000000001,-2.784511566428573,Sr4Fe1Mo1O8,mp-1218333
3.6404,-3.4384804274419998,Sr12Al14Cl2O32,mp-1218648
1.8139,-2.9897817012500005,Sr2Nb1Fe1O6,mp-1218741
0.4885999999999999,-0.5580301303645829,Sn4Pt4Se4,mp-1218926
3.0493,-3.6506990415740734,Nd4Ta4Ti4O24,mp-1220116
1.8252,-1.3330113155250003,Na1Li1Zn1S2,mp-1220972
1.3211,-0.7620238357489174,Na8Sr4Ti2P8,mp-1221155
4.2533,-1.4700606206137934,Mg2As2H32N2O20,mp-1222268
2.510699999999999,-1.7093790804785705,Li1La5Si4N10O1,mp-1222517
1.9859,-2.116397277690218,La6Zn1Si2S14,mp-1223149
4.4433,-3.6376533950119057,K1Pr9Si6O26,mp-1223421
2.1944,-2.62188219786,K1Cr12Si8Br1O28,mp-1223609
2.8345,-3.0127721471036213,Cs6V4O4F14,mp-1226167
2.7293000000000003,-3.021013566964286,Ca5Co3Si4O16,mp-1227139
2.3803,-3.3864333736111107,Ba4Ta10Fe1O30,mp-1228547
1.2449,-0.731927450092593,Ag2Au2I8O24,mp-1229194
0.5391000000000004,-2.190252091041668,Pm4S8,mp-1232276
4.4962,-2.2741573014366936,Rb8Mn8S12O48,mp-12436
0.41299999999999937,-2.84153778375,Li2Nd4Os2O12,mp-12450
1.1665,-1.9840081789732151,Pr2Zn2P2O2,mp-13206
0.9338000000000006,-1.7022836345312509,Sc2Tl2S4,mp-13312
0.5049999999999999,-0.6121673480952387,P4Ru2,mp-1413
0.4336000000000002,-0.5294226347619038,Co4P8,mp-14285
1.0795,-0.8624740395914152,Rb4V2Ag2Se8,mp-14635
3.8855,-3.5070240017187486,Ca2Ta2Al2O10,mp-15733
1.7426000000000004,-2.6160914469318186,Ca4Sb4O14,mp-16280
3.3162000000000003,-2.4906646236858987,Tl12B24O42,mp-16457
3.688,-3.0980899383525653,K18Tb6Si12O42,mp-16594
1.7679,-0.6153645111628572,Na12W4N12,mp-16839
2.2746,-3.1472914374600003,Ba4Li4Co4F24,mp-17034
1.0572999999999997,-2.8183873339245467,Sc4Mn4O14,mp-17619
0.6347999999999998,-0.8527413961111113,Ba8Ge8Te20,mp-17885
3.3138,-3.8058475863020815,Nd8Ti4O20,mp-17904
7.1135,-3.8512599018488887,Na3Ca3Al3F18,mp-17944
0.7313999999999998,-0.2606581976086952,Na10Yb1Sn12,mp-18062
2.5273,-2.9637024070315734,Na10Ti4Si4P2O26,mp-18271
4.6322,-2.93176318726425,Cs4Mg4P4O16,mp-18329
2.1131,-0.9222503013973216,K12As4Se12,mp-18594
1.015,-0.1738522545474135,Rb32Ge32,mp-1888
1.2628,-2.6480963006741067,Na4V4P4O20,mp-19291
2.5013,-2.780243805322857,K8Cr8P8O32F8,mp-19498
4.0107,-3.025737322864584,La3Ge3B3O15,mp-19957
0.04499999999999993,-0.9556033950000008,Gd1Pt3,mp-20272
0.8595999999999995,-2.103676348442,Mn2Sn2O6,mp-20569
0.03509999999999991,-2.527667004166668,Eu2Cr2O8,mp-22586
1.6257,-0.3414294374404762,P4Br20,mp-22874
3.5099,-1.810734521056,K4Cd4Cl12,mp-23442
3.0337,-2.287459552883333,Sn12Br4F20,mp-23452
3.7739999999999996,-2.297050084356428,Ba16As16H16O64,mp-23810
3.5468,-1.1683880678733332,Ca2H2I2,mp-24204
3.7095,-0.18952886110380915,P2H8I2,mp-24409
6.2517999999999985,-3.647640069571112,Na8Zr4F24,mp-27307
1.3581,-1.4377693577,K8Cd4O8,mp-27742
4.0814,-2.9905594607437496,Al2Tl4F10,mp-27758
2.2278,-1.6431691331379312,Rb8Sn4O8,mp-27931
5.7482000000000015,-3.04930058712912,Er4P12O36,mp-27939
1.7447,-0.15402833732142795,Si12P12,mp-2798
1.8384,-2.2581915071114294,Ca3As1Cl3,mp-28069
4.1516,-2.740965919454561,Sn20B4F52,mp-28271
4.0078,-1.8771000382499998,K8Pr4Br20,mp-28276
2.1400999999999994,-2.4726149028600006,Gd8N4Cl12,mp-28279
1.6265,-0.6132938406330819,Rb8As8Se16,mp-28562
3.4737000000000005,-3.8377682975000007,Zr4O8,mp-2858
1.7412,-2.6589271922499997,Sr4Sn4O12,mp-2879
4.1678,-1.0616820673189664,Rb1Br1O3,mp-28872
0.6342999999999999,-1.3127871596235636,Rb18I6O6,mp-29019
1.2409,-0.7032004000041668,Re24Te32Cl40,mp-29114
4.2535,-2.477841418264285,Cd4P12O34,mp-29276
6.4405,-1.8530594871588093,P2H4F6,mp-29515