band_gap,formation_energy_per_atom,full_formula,task_id
0.013100000000000556,-0.4622349008578434,Tb16Ni80B40,mp-1201581
3.5511,-1.4070448595751608,Al2H24N6O30,mp-1203296
0.8090999999999999,-1.3160230981915788,Sn4W6Cl28,mp-1203382
2.1608,-2.295442495684524,Re12P12O72,mp-1203700
3.7282,-3.152372116120689,Al8Fe4Si10O36,mp-1204107
1.9834999999999996,-1.3858676127500005,Ni18Te10Pb12O60,mp-1204674
3.8122,-2.4879307561767243,Rb48Sc32As48O192,mp-1205185
1.3202999999999998,-1.781969292441533,Cs2Tc1Cl6,mp-1205840
3.3549999999999995,-2.8413403291666675,Yb2Mo2O8,mp-1207551
1.0789,-2.2806444161688315,Tl12Mo16P16O88,mp-1208648
2.6220000000000003,-2.2388428046875006,Pr4S4Br4,mp-1209293
4.0698,-1.8693807541487069,Rb8Sm4Br20,mp-1209518
1.4227,-1.2404202510617872,Rb8Fe4H8Br20O4,mp-1209552
0.2357,-0.4509218254166676,Pd24Se16S8,mp-1209912
3.4762,-2.3081254724665183,Nd8Se12O36,mp-1210071
4.71,-3.6146822383333337,Li4Tb24B12O56,mp-1211079
1.5176000000000005,-0.10143719907142844,K2P30,mp-1211471
3.3672000000000004,-2.822600043944444,K12Nd4B8O24,mp-1211700
3.1594,-2.052294572908333,K24Mo6O30,mp-1211821
0.04870000000000019,-0.2837528105847951,Li66Cu63Si42,mp-1212343
3.0838,-2.877641190795456,Gd4Al4Ge8O28,mp-1212574
1.2292,-2.0488760066748597,Cs2Zr12Mn2Cl28,mp-1213469
0.2260999999999997,-1.221926503261494,Cs4Pr24Fe4I40,mp-1213658
0.20480000000000054,-2.9215865280432407,Cs2Ce2P8O24,mp-1213689
3.0303,-1.833111701687192,Cs6Sc4Br18,mp-1213834
4.4416,-3.4046795287500013,Ca4Y1B3O10,mp-1214020
4.9389,-2.8542402175320007,Ba8Ho4Cl28,mp-1214684
3.8533,-3.3267223929427088,Ba18Er6B18O54,mp-1214885
1.6107,-0.6646573967346937,Zn3P1Br3,mp-1215629
0.6673,-1.1120870330468744,Sc4Cu4Se8,mp-1219343
1.0215,-1.7849558274351471,Rb4In1Sb1Cl12,mp-1219602
3.1952,-1.1139612175993334,K2H4I6O18,mp-1223560
2.2141,-1.503616289967106,Fe2Pb1Se4O12,mp-1224708
1.5476000000000003,-1.6843166415357151,Ba4Na4V4S16,mp-1227892
0.013100000000000113,-0.4797538732463769,K76Nb14As48,mp-1228670
3.1474,-2.8749553782499997,Ba6W2O12,mp-1228775
5.3595,-3.5465528445833336,Dy4B4O12,mp-12315
2.5453,-1.303678765816072,Na2Er2P4S12,mp-12384
1.7393999999999998,-1.1014678431178158,Cs2Sm2Cd2Te6,mp-12497
1.3838999999999997,-1.5742904568749996,Li1Rh1O2,mp-14115
2.002,-2.089870759056124,As4P4O20,mp-14367
2.2307999999999995,-3.1918945382519537,La16Si8Se12O28,mp-14912
0.9068999999999998,-0.3587514794285716,K16Ga16Sb24,mp-15433
2.3033,-1.1180087811041666,Na6Au2S4,mp-15567
3.8756,-1.9916722038519736,K8Ni8S12O48,mp-15598
3.3422,-2.5663355269175168,Mg8Ag8P24O72,mp-15728
0.4584000000000002,-1.224673631666667,Ho1Sb1Pt1,mp-16376
0.8552999999999997,-0.4558515499999984,Si24Os16,mp-16608
2.3222,-2.000341678751796,Rb2V6Se4O24,mp-16917
3.1411999999999995,-3.1502128010737542,Rb4Ti2Si6O18,mp-17037
1.3022,-1.4061827511935767,La6Ag2Sn2Se14,mp-17155
0.6374,-0.2549654092857142,Tl12Ge4Te12,mp-17217
0.8757999999999999,-0.32730587147058793,Ga14Te20,mp-18388
2.5472,-2.1032694910227265,V2Cd2O7,mp-18740
0.24750000000000005,-2.8025025175,Ho2Cr2O8,mp-19076
1.9882,-1.9628447137500007,Cr4As4O16,mp-19077
3.3293,-1.7067325050000008,Tl4W2O8,mp-19341
0.015500000000000291,-0.27773783807692304,Sc1Fe6Ge6,mp-19739
0.25570000000000004,-0.7353024332812508,Mn2Cu4Ge2S8,mp-20474
0.7991000000000001,-2.178828229750001,Sr4Pb4O12,mp-20489
4.4623,-3.3097135171875007,Dy4Be4Ge2O14,mp-20778
0.6215999999999999,-0.22484794408482145,In2Ag2P4Se12,mp-20902
0.0013999999999994015,-0.5759451749999988,Ce2Co2Ge2,mp-21339
0.05460000000000065,-3.366683827923912,K4Ce2Ta10O30,mp-21542
1.5189999999999997,-0.4890511474999997,Al1As1,mp-2172
0.006399999999999295,-0.1383113250000001,Eu1Ni5,mp-22311
0.3046000000000002,-4.187639786481111,Ce2Zr2F14,mp-22724
4.3112,-3.01154748373,Sr2I2F2,mp-23046
4.7166,-1.4166441641116672,B2Cl6,mp-23184
2.3665,-1.0385747191249997,K2Sn4Br10,mp-23541
3.6221,-1.6789645940601414,Rb6H2Se4O16,mp-23897
4.6505,-1.839656857720385,Zn2H4S4O16,mp-24502
4.7782,-2.5329438122777783,Zr4H12N4F16,mp-24508
2.3476,-1.2988942633749998,K4O4,mp-2672
0.3785,-0.9331782567413788,Cs4Cu4Br12,mp-27336
1.3426,-1.6840356045242857,K6W4Cl18,mp-27506
3.5393,-1.7804705475,Zn12As8O24,mp-27580
3.1807000000000003,-1.7862824554166667,Bi4As4O16,mp-27911
6.9711,-4.249380864383,K8Er16F56,mp-27925
1.8089,-0.9611797600833332,K4Tl4Br16,mp-28048
1.2876,-1.1669702715962496,Ca6C6Cl4,mp-28160
3.2929,-1.432411055456,Tl4Cd4Cl12,mp-28218
0.8659999999999999,-0.759802929,K4Pt2I12,mp-28247
0.27680000000000016,-0.3486777633214285,Na14Al4Sb10,mp-28267
1.7564,-0.8634307475468752,Na24Si8Se32,mp-28303
2.2814000000000005,-1.2047300864866075,Na6P2S8,mp-28782
0.9996999999999998,-0.7410687318750002,Tl4Pt10S12,mp-28805
2.2456,-0.07735333161830305,P16Se16,mp-28885
0.7152000000000001,-0.18519976833333332,Hg32Sb16I24,mp-29043
3.3858000000000006,-1.7960580696944453,K8Te8O20,mp-29129
2.4326000000000003,-1.884739338322368,Nb4Se8O26,mp-29193
1.5013,-2.1013105908035725,P8Pt4O28,mp-29282
3.7464,-0.17041763920152814,Si16H48Se8,mp-29310
2.0197000000000003,-1.2738939897083337,Na10In2S8,mp-29376
1.8636,-0.3869578950000003,Al2Te2I14,mp-29407
0.4985,-1.0069299996982763,Rb8Zr4Te12,mp-29603
0.4914000000000001,-1.59427942535,K12Bi12O36,mp-29799
3.3018,-2.2856012286029417,Pr4Te8O22,mp-2980
2.92,-2.062185463175,Na16Mo4O20,mp-29984
1.2813,-0.9131611386373332,Be4Te14Cl12,mp-30096
1.3186,-1.2338050721759095,Zr4Se16Cl24,mp-30113
3.0665,-1.653055136563362,Cs2Sn4Cl10,mp-30164
0.5682,-1.2491553126866657,Ca3B1N3,mp-30315
6.118099999999999,-3.3732942082142854,Be4Al8O16,mp-3081
1.8161999999999996,-2.432022878125,Al2Cu2O4,mp-3098
1.3799,-1.4595593801783329,As2I10F12,mp-31020
1.0374999999999996,-2.248540356944445,Mg2Sb4O12,mp-3653
0.040899999999999714,-0.22001344916666632,Co8Ge8Te8,mp-3715
4.2949,-2.648769515149481,Zr4P6H8N2O24,mp-39770
5.8816,-3.524698034523808,Tb2P2O8,mp-4340
3.6802,-2.939170015125,K1Pr1O2,mp-4519
4.6591,-2.5408569299206363,Li2Sb2P8O24,mp-504353
0.002299999999999969,-2.90991277,Ba2Eu1Re1O6,mp-504674
2.0836,-1.9208468967633232,Rb2Li14Pb3O14,mp-504810
0.1993999999999998,-4.321284442559167,Ce6F18,mp-510560
0.9598,-0.8440708661979173,Ga2Ag2S4,mp-5342
0.5996000000000001,-1.7626992724264714,Cr4Te8O22,mp-540537
1.1154000000000002,-2.192578641020833,La12In4S24,mp-540877
0.5543999999999998,-0.6847807403693182,Nb12S4I28,mp-541158
4.8329,-2.740595193945186,Cs4Sc4P8H8O32,mp-543046
0.2805999999999997,-1.242572668667144,Ba2Mn2As2O1,mp-550454
2.3916,-2.438123579249999,Ba2Ni1Mo1O6,mp-552567
1.5595,-1.4126381554252636,Ag6Mo2Cl1O7F3,mp-553919
2.6388000000000003,-1.3094750875657473,K4Er4P8S28,mp-554741
5.2422,-3.0720941435496067,Ba8B20Cl4O36,mp-555742
3.0075000000000003,-2.0815715387954987,Rb24Ge12O36,mp-556051
1.9067,-1.2324665164747377,K8Pd4N16O48,mp-556518
2.2584,-2.95175834119898,Nb4P4O20,mp-556918
5.0787,-2.7024555546092133,Na10B4P6O26,mp-557836
2.1388,-1.97090918834018,Zr4Mn8Ag16Mo24O96,mp-558201
3.2938,-2.5172530457447837,Na12B24N4O52,mp-558548
1.6001,-1.4166842212451929,Na2Pd1Se2O8,mp-559068
2.8725,-2.1347939866818177,K4Zn2Ge4O12,mp-560398
2.7187,-3.3832950581416674,Na2Ti4Al10O24,mp-560591
2.8374,-2.088157881056984,Zn2Co2P2H2O10,mp-561632
3.6273,-2.8718320983333325,Dy2As2O8,mp-5632
1.5523,-0.72148584637931,Cs4Cd6Te8,mp-567386
1.6366000000000005,-0.7779740892241378,Rb2Cu4Br6,mp-567644
2.3223,-0.916851353,Hf4I16,mp-569059
0.9556,-1.1459036363925723,Cs2Er2Nb12Br36,mp-569903
1.9383,-2.3175464211444448,K4La20C8Cl40,mp-571240
1.9,-1.1420352545273211,Ta8P16Se16Cl40,mp-571250
1.8862,-1.964166539683908,Cs4Cr12O32,mp-573422
0.014999999999999682,-0.1433434683147321,Cu6P2Se8,mp-5756
2.017,-1.070501002121149,Cs2Cu4I2Cl4,mp-579536
2.8601,-2.1681163253645828,Li8Ge28O60,mp-5832
2.6095,-3.0456300241725964,Rb2Ti4P6O24,mp-6125
4.5763,-1.8808502206485715,Na8Zn4Cl16,mp-616461
2.4478,-1.3234145946733331,Mo12Cl24,mp-620029
0.2260999999999997,-1.5571136001562502,Li2Eu1Ge1S4,mp-629443
0.9728000000000004,-0.4805942114705881,Ca2Ga12Te20,mp-675750
3.4964,-1.5374092515529272,Na12Nd8N36O108,mp-679958
4.9929,-2.6444581049152096,Na12Al4P12N4O36,mp-6860
4.9298,-3.2665774502307685,K2Al2Si6O16,mp-697670
2.3359,-2.174434214617458,Rb1Dy1S2,mp-7046
0.2375999999999996,-0.8683261551302094,Zr2Tl2Cu2Se6,mp-7050
1.3659,-0.8296045916964289,Li20Sn2P4Se24,mp-721252
6.596,-2.020846619444762,Si2H20O8F12,mp-722246
5.459199999999999,-1.8413070667137497,Al8H80S8O72F8,mp-730446
0.8978999999999995,-2.770077079807693,Yb4V16O32,mp-735715
2.2078,-3.189514313422501,Nb2O4F2,mp-752467
2.2457000000000003,-3.4011225670400016,Ta3O7F1,mp-753747
0.8631999999999995,-2.4164923471428588,Li2V3Sb1O8,mp-756138
2.4736,-3.215505301964,Li12V4F24,mp-759464
1.2578000000000005,-1.6546040948062017,Ti4Ni15O24,mp-766093
1.1539,-3.004987959285714,Sr4Nb8O16,mp-768342
3.947400000000001,-3.4234209207812505,Tm8Ge4O20,mp-770409
3.1298,-2.69123833825,Ho6Sb10O24,mp-771762
3.5959000000000003,-2.2386853423775515,Na4Ni4P4O16,mp-776388
2.2403000000000004,-2.4661852685714285,Li4Nb4Co4O16,mp-777452
1.2148000000000003,-1.1544919537629312,Rb2Pt1S2,mp-7929
0.5134999999999996,-0.9982407166718748,Na2Nb2Se4,mp-7939
2.7662,-2.1446489863461538,Li6Te1O6,mp-7941
3.7286,-2.9866444908333336,Zr2Ge2O8,mp-8042
3.6247,-3.1154905526250003,K1Sc1O2,mp-8188
0.16790000000000038,-3.4112489934126997,Ce3P3O12,mp-8382
3.5102,-3.132664794305556,K2Na2Nd2Ta2O10,mp-861607
2.9376999999999995,-1.8637981673928576,K2La2Si2S8,mp-861938
2.2173,-1.3649403399999995,Ho2I6,mp-864657
0.12749999999999995,-0.6095763999999999,Sr2Hg1Pb1,mp-867207
3.5354,-1.8831814737083332,K4Te2O6,mp-8724
0.5891000000000002,-0.8797124719375006,Cr4Sb4S12,mp-9130
1.1054,-0.4676981805000002,K3Sb2Au3,mp-9273
1.1379,-0.2642254562499993,Ta1Cu3Te4,mp-9295
0.10990000000000012,-0.4228126402000008,K4Ni2As4,mp-9673
3.2656,-2.97773493125,Lu2I2O2,mp-973585
0.5185,-0.6828774937066667,Ca6Sn2H4,mp-984605
0.6720999999999999,-0.1612393647467126,Cs2Al1In1H6,mp-989535
1.120900000000001,-2.68905487025,La2Zn1Co1O6,mvc-14594
2.5737000000000005,-1.5085139911994745,Sr8Li4Si8N16O2,mp-1020592
5.1275,-2.3328936855204563,Rb12B4S12O48,mp-1020716
0.9636999999999998,-1.094878476425,Na4Pd2S4,mp-10223
2.2611,-1.5481218181691665,Ca16Ti16N32,mp-1029572
0.3270999999999997,-0.5835836903566664,Mg8Re4N12,mp-1029627
0.04029999999999978,-0.5475384254109085,Li12Os2N8,mp-1029826
3.989,-2.125103249999999,Zn1Re2O8,mp-10326
2.4373,-0.4149407328299999,Na8Re2N6,mp-10419
4.2371,-3.1937136018849213,Li4Zr8P12O48,mp-10499
1.6014999999999997,-1.7078292701562503,Y4Cu4S8,mp-10533
5.0315,-4.295029006646668,Dy2O2F2,mp-1072208
3.9467,-3.096291603583334,Ba2Ta1In1O6,mp-1079630
0.5383,-0.3706127884827588,Cs4Bi4Pd2,mp-1080693
1.5514,-1.1057512095,K12Cu20O16,mp-10914
0.8529999999999998,-0.9386744800000002,Ca4Cd2As4,mp-1095180
1.0566,-1.0262649463433906,Cs2Ag2O4,mp-1096933
3.8183,-1.681611564166667,Sr1Ca1I4,mp-1101340
2.7289000000000003,-1.0402496176275515,Li1Zn1P1S4,mp-11175
1.2382999999999995,-1.3832748811900002,Sr1Ce1N2,mp-11178
1.7847,-1.6421102614537617,Cs12Br8O2,mp-1178399
1.0874000000000006,-1.9858429716145831,Sr4Nd4Cu4S12,mp-1190834
2.4121,-1.2626606489519994,Ca2Be4N4,mp-11918
3.5788,-2.520250604214285,Na4Ca4As4O16,mp-1193109
2.641,-1.2407191919553573,K12As4S12,mp-1193111
1.5631000000000002,-0.601609165997143,Ba8H16Pd4,mp-1193896
1.9453,-2.5822975235714294,Er4Mo4Br4O16,mp-1194158
6.2946,-3.0646202851260003,Na6B6O6F12,mp-1194338
3.4232,-2.558217401931304,K4Co4As12F72,mp-1194626
4.579,-2.3777363477433338,Na12Mo4O16F4,mp-1194849
2.7049000000000003,-2.3893536261562494,Na6Gd2C6O18,mp-1194955
2.0714,-1.1879749672743054,Ba8Ga4As4Se20,mp-1195309
4.2761,-2.2295426080032326,Rb4Y4Se8O24,mp-1195500
4.7998,-3.67269605050926,Ba2Er8Si10O34,mp-1195598
2.3256,-1.7548145962326391,Mo4Pb4Se4O24,mp-1196979
3.2427,-2.367142355825,K12Al8As12O48,mp-1197125
4.5252,-3.1877755002564103,Nd8Ge4B8O32,mp-1197137
0.8076000000000001,-1.2005941901852633,Na4Cu2N8O24,mp-1199156
2.5491,-2.67117320301381,Na4Fe4P8O24F8,mp-1199438
5.3895,-2.935666210920635,K2Pr2P8O24,mp-1200142
4.6498,-2.5951670563019515,Cs4Ga4B4P8H4O36,mp-1201408
1.5853,-1.834104801486219,Cs4Lu28Se44,mp-1203743
1.1897,-0.2868473686300341,Cs12Ge36H24N8,mp-1204552
0.9182,-1.5091253722162368,Rb4Os8O36,mp-1205111
0.8844999999999996,-0.5480374909049996,Ba1Al1Ge1H1,mp-1207108
4.1327,-3.5219863041266666,Sr2Li2Cr2F12,mp-1208634
2.9411000000000005,-2.6182606078409107,Sm4Ga4Ge8O28,mp-1208678
5.7774,-2.7992477761580887,Tb8S12O48,mp-1208801
5.6417,-3.516983499242857,Sr8Ga8F40,mp-1208823
6.8648,-3.963303316267471,Rb4Pr4F16,mp-1209185
1.7071,-1.5635003823955556,Sb12Cl44F16,mp-1209457
3.3517,-2.033752825068965,Rb4Li6Ga2O8,mp-1209478
0.036100000000000236,-3.8931536550174712,Rb4Ce4F16,mp-1209496
0.05149999999999988,-0.5874418148469392,Nd2Zn6P6,mp-1209827
2.4351000000000003,-3.3458413011209087,Na4Mg2V2F14,mp-1210449
0.8315999999999999,-1.5318883689714289,K8Zr6Be1Br20,mp-1211836
2.6738,-1.9813159490033327,Ga4Cl4O4,mp-1212662
1.318,-1.1556943243733415,Cs2La2Ta12Br36,mp-1213395
0.34450000000000003,-2.6036253291396108,Ca4P8Pd4O28,mp-1214043
0.8219000000000001,-1.2148451953448276,Cs8Co4Br16,mp-1214168
4.0733,-3.469682886571111,Ba8Na8Cr8F48,mp-1214564
0.4615999999999998,-1.0687514571428574,Yb6Dy2Sb6,mp-1215840
1.1885999999999992,-2.0543205845312507,Sr4La4Cu4S12,mp-1218223
2.3934,-2.9340484668500006,Sr10Mg5Mo4W1O30,mp-1218905
2.925,-3.43041374895,Na2La2Sc2Nb2O12,mp-1220822
2.9513,-2.814443337206767,K4Ba4Cr8P12O48,mp-1223640
4.144400000000001,-3.714294596955645,La6Nd22Si18O78,mp-1224647
1.986,-3.0746021351136363,Er4Cr2Sb2O14,mp-1225159
5.089499999999999,-3.1827364875941,Cs2Al2Ni2F12,mp-1225930
3.9027,-1.8189452974475,Ba1Al1Si5N7O2,mp-1227994
2.3685,-1.4019034208642691,Cs6Re12S14Cl14,mp-1227999
1.4112,-2.241663289660834,Y4S3N2,mp-1246909
1.9607,-2.048119619296876,Ba1Se1,mp-1253
0.6335999999999999,-2.4174927794220458,Cs2K1Ag1F6,mp-13687
1.2603000000000002,-0.3684845229999998,K3Ag3As2,mp-14206
5.0014,-2.6149968216255104,Na12Ga4P32O92,mp-14390
0.5748,-3.1508364449837787,Zr2Ag1Pd1F11,mp-14651
1.7542,-3.2528802053676484,La16Mo8O44,mp-14748
2.6338,-1.4171833975413082,Cs4Ta2Ag2S8,mp-15218
3.568,-2.3387595260416667,Li4Ge2O6,mp-15349
6.981,-3.8478707771266665,Ba8Na8Al8F48,mp-15515
0.327,-0.4853655223214283,Sc8C6,mp-15661
4.919499999999998,-2.9919528529132653,K6Nd2P4O16,mp-17187
2.1093,-2.7266260888668827,Na4V4P8O28,mp-17479
2.4431000000000003,-2.89590978718254,Sr4V4P4O24,mp-17502
3.2139,-2.436880626225,Na2Mg8As6O24,mp-17771
4.4903,-3.3613094294531263,Sr6Y1Sc1B6O18,mp-18043
0.11029999999999962,-0.5688640034523805,La4P20,mp-1864
0.4870000000000001,-1.1303070534615391,Ca1Ni4O8,mp-18718
2.9768,-3.231203927500001,Dy2V2O8,mp-18784
1.8135000000000003,-1.816452407643708,Rb4Na2Mn2O8,mp-18873
2.8228,-2.6906306341666677,Sr4V8O24,mp-19038
1.4273000000000002,-1.0496248847916672,Co2Ag2O4,mp-19178
0.2461000000000002,-2.803689228333333,Er2Cr2O8,mp-19240
3.3063,-2.3805511201232976,Na6Mn2P2C2O14,mp-19261
2.2617,-2.953118874750001,Ba2Ca1Mo1O6,mp-19403
0.8674,-0.4115756849999999,Te1Pb1,mp-19717
0.001100000000000101,-0.7579707828571429,Ba1Mn2P2,mp-19857
0.8621000000000003,-0.5617458049107142,Mn1Ga2Se4,mp-20261
1.9923999999999995,-3.2146817718055565,Ba4Er8Co4O20,mp-21317
0.02649999999999864,-0.2826297086206907,Ni21Sn2B6,mp-21573
0.028200000000000006,-0.7015559594444447,Eu4In4Pd4,mp-22322
0.5528999999999993,-1.4425812135892302,Eu2Y2Si8N14,mp-22517
1.8674,-0.9115588338300492,Cs6Sb4I18,mp-23029
1.3886,0.0,Br4,mp-23154
1.3066,-1.2814298249014775,Cs6Cr4Br18,mp-23451
2.7991,-1.707633785774866,Cs2Te1Cl6,mp-23465
2.3761999999999994,-0.905365377338474,K4Bi4P8S28,mp-23572
4.6288,-2.5598606611428574,Na4Bi4P16O48,mp-23621
1.8697,-0.4905574177828572,Ca4Mg4Ni4H16,mp-24052
2.3359,-1.4989948353952385,Ta2P2Cl20,mp-27788
0.5211000000000006,-0.8347370872916665,Ir8S16,mp-2833
1.6975,-1.7618005963068182,Fe8As10O26,mp-28519
0.8845999999999998,-2.872279368482728,Eu8Cl12O2,mp-28546
0.4956,-0.2829009816666665,Ta2Te8I2,mp-28691
3.9706,-2.571375073682666,Mn2As4F24,mp-29108
0.13569999999999993,-2.7998874542068957,Na2Nb20O36,mp-29162
2.6511,-2.036827421363638,Ge24Pb8O56,mp-29217
1.1864,-1.5783370606485714,Na8Pd4Cl16,mp-29359
0.2452000000000005,-0.22273879133333327,K4Al4Sb16,mp-29373
1.127,-0.7092311008485992,Cs8Sb8Se16,mp-2969
3.3159,-1.272227928241379,Cs2Mg2I6,mp-29751
1.3341000000000005,-1.7005907905343762,Na16Se4O20,mp-29871
1.1756,-1.1661358347200002,Tl2Pd1Cl4,mp-29889
3.8831000000000007,-3.97240214975,La4Sc4O12,mp-31116
0.2354999999999996,-0.7541419220555556,Ba3Na3Bi3,mp-31235
0.3723000000000001,-0.7915107555555557,Ba6As12,mp-31243
1.9056,-2.220380642952,Pb1F4,mp-341
6.988899999999999,-3.3902988260525926,Na6Si3F18,mp-3775
0.25290000000000035,-0.9006359900000002,Tm1Ni1Sb1,mp-4025
0.2392000000000003,-2.411896752708333,Sr2Pd1O3,mp-4359
0.1513,-3.0178092639452387,Nb6F15,mp-466
2.0654000000000003,-1.6308812049247128,Cs8Na12In4O16,mp-504852
1.2562999999999995,-0.4722078395258622,Cs4Ta4Cu8Te16,mp-505322
0.03649999999999976,-2.755816162954545,Sr6Eu2Rh2O12,mp-505615
3.6944,-2.467711894139612,Fe4P4O14,mp-510367
3.0731,-2.0494912612833343,K12Ge4O14,mp-5116
4.5616,-3.1663682317821427,Na12Zr8Si8P4O48,mp-532695
2.1637,-0.04021243845666689,N12Cl36,mp-540572
1.4057,-1.5659246066200003,Al8Te8Cl28,mp-540629
1.8164,-2.25620779415,K6Na2Re4O18,mp-541393
1.2077999999999998,-1.6238251338802083,Ba4La4Cu4Se12,mp-541430
2.2393,-2.4102223859285723,Sb8P16O56,mp-541668
0.07799999999999985,-2.317009501583334,Ba6Li2Ru4O18,mp-542122
1.354,-1.381470288134237,Rb8Co8O12,mp-542299
2.3924,-0.860634803375838,Cs8Si8Se20,mp-542550
3.6849,-2.1880700966747777,Cs4Sc4As8H8O32,mp-542557
3.3529000000000004,-2.97797758325,Y12Ga20O48,mp-5444
1.3895,-2.4797025135325006,Dy1Bi2Cl1O4,mp-552008
3.5103000000000004,-3.2576196930488903,Pr8Sb4O20F4,mp-554138
4.2047,-2.60237934921131,K4Na4Zn4P8O28,mp-554157
5.689,-3.0380106605906585,Y8P24O72,mp-554423
2.6129,-2.5412631844426405,Cr12P12O42,mp-554453
2.6812000000000005,-2.5218774800806187,Cs10Si6Ag2O18,mp-554842
1.2497000000000005,-1.7164312921785714,Na8Zn8O12,mp-554845
3.6065,-1.7962101079791666,Ga8Mo4Se8O40,mp-554901
4.5070000000000014,-3.1846496327899985,Na12Dy4Si24O60,mp-555604
2.7326,-2.7501100697514285,Dy2Mo2Cl2O8,mp-555683
2.9637,-1.2577315868694736,K4Ni2N8O24,mp-556059
2.1741,-3.0512709713888904,La4Cr2O12,mp-556104
5.6345,-3.0445717930555567,Ca8B32O56,mp-556214
2.8149000000000006,-2.590221605986528,Fe6B14Cl2O26,mp-556300
5.5859,-3.0810559602916667,Li8Si16B8O48,mp-556531
3.8427,-2.8079110625714288,K4Sr4V4O16,mp-556966
2.5205,-3.1665316735829654,K1Rb2V1F6,mp-557411
1.7275,-1.8989718840788896,Ge4Cl4O8F20,mp-557432
5.1966,-2.896051738311282,Rb4P4O8F8,mp-558162
0.00199999999999978,-1.889764834453126,Ce6Cu2Si2S14,mp-558375
2.5369,-3.1888232927553792,Cs2K1V1F6,mp-558895
4.7509000000000015,-3.04663853359254,Na16Ca8P8O32F8,mp-559376
1.7825999999999995,-1.8083270761979169,V8Cd16Te12O60,mp-559685
1.5192999999999994,-0.7540603061979176,In2Sb4S8Br2,mp-559864
5.4349,-3.0026647415873016,Ba4P8O24,mp-559939
3.8805,-3.620222177256191,Ca12Ta16O48F8,mp-560378
3.7695,-2.525761747521429,K6Bi4P6O24,mp-560420
1.3134,-1.8489172928700004,K11Li1Mn4O16,mp-560465
1.4192,-2.5102808742342857,Mn13Al4Si2Sb2O28,mp-560917
5.0991,-3.191873819717273,Na12Nb4O4F24,mp-561259
0.9891,-2.3324177706250007,Gd1Bi2Br1O4,mp-562809
2.7775000000000003,-2.389597266901525,Rb4Nb4S8O36,mp-562977
3.8549,-0.7243522677923219,Rb1La1Si1C4N8,mp-568228
0.5969000000000002,-1.1546747069230772,Ca56Ga4As44,mp-568790
0.8724000000000007,-2.598834808750001,Tb4Rh4O12,mp-5692
0.7504000000000001,-1.0717238792911878,Cs12Co4I20,mp-569323
0.1554000000000002,-1.6257771085197046,Rb8Tb40C16Br76,mp-569962
2.4273,-1.3383012066116071,Nb2P4N2Cl24,mp-570531
2.6255,-2.133376977875,Ba8Cr16O56,mp-572430
2.4625,-1.5783744323329745,Cs4Li2Nb2S8,mp-573030
1.6057,-1.1973224706666667,K4Sn2Br12,mp-574040
0.00199999999999978,-2.088689552783334,Ce12C4Cl20,mp-580802
3.4245000000000005,-2.5932802134583333,K2Li2Nd4Mo8O32,mp-581225
0.9008000000000004,-0.6398789874791664,K16Hf12Te68,mp-581963
5.939399999999999,-3.543337814523809,Tm2P2O8,mp-5884
2.8355,-3.0985568285080647,Ba2Ta6Te2O21,mp-6238
4.4106,-2.3363828402918796,Cs4S4O8F4,mp-6368
4.3806,-3.199022603977833,Rb4Al4Si4O16,mp-6434