band_gap,formation_energy_per_atom,full_formula,task_id
0.0,-0.09328184166666749,Rh3Pb3,mp-442
0.0,-0.496484125416667,Ti1Co2Ge1,mp-4612
1.8363999999999998,-0.23621589371938814,Na12P44,mp-473
0.0,-0.6728439510000002,Ca1Ni2As2,mp-4744
4.528700000000001,-3.3953906186830003,K8Nb4F28,mp-4758
0.0,-0.6156851552777786,Y8Re4B24,mp-504560
0.0,-0.7508337014434527,Ti8Ni4P20,mp-505081
1.0629,-0.40223004130288476,K8Pd4Se40,mp-505138
4.2832,-2.7594986809733335,Na8W4O8F16,mp-505382
0.0,-0.6067144057466661,Ce1H2,mp-505569
3.8657,-1.2993674873966665,Sc4H24N8Cl12,mp-505794
0.01019999999999932,-0.26027508083333356,Gd4Os8,mp-510184
0.0,-1.3678559616666666,La8B8Br10,mp-510357
0.0,-0.6910916509374996,Nd10Sn6,mp-510503
0.0,-1.4958727417307698,Nb8Cr2S16,mp-5306
3.953,-3.992529690676315,Eu4Zr12F60,mp-532491
0.00039999999999995595,-3.0163860398263975,Rb16Yb3Ti13P24O96,mp-532617
1.7420999999999998,-1.9355295976923077,V4Co6O16,mp-540833
3.7001,-2.734207894735451,Nd4Ag4P16O48,mp-541041
3.0232,-2.5265247504866073,K8Sn8P8O40,mp-541459
0.0,-2.2831359212500013,Nd4Os6O19,mp-541640
3.068,-1.4000046108300785,Cd6Se6O20,mp-542117
0.0,-0.5891237100000003,Zr10Sn8,mp-543001
3.4537999999999998,-2.395431678750002,Li1Sc1As2O7,mp-552663
0.0,-2.2007288795833335,Ba6Li2Ir4O18,mp-554837
1.3192000000000004,-0.9649714212410713,Na8Cu4Sb4S12,mp-555871
0.0,-0.45491917750000077,Zr2Ni2,mp-556
3.7611999999999997,-2.5145119765227264,K2Li8Nb2O10,mp-556902
3.0152,-3.113860710049019,Gd4Mg4B20O40,mp-556905
1.6179000000000006,-1.9413475642447917,Nd6Cu2Si2S14,mp-556975
2.5879,-2.9568410546424997,Cr1Mo1F6,mp-557158
3.9366000000000003,-2.0096811107685344,K8As2H10S6O32,mp-557941
0.019300000000000095,-1.7177583115972237,Ti1S2,mp-558110
3.7057999999999995,-2.0930391200491663,Li2Pr4C4N8F6,mp-561257
0.0,-0.5317118390375001,K1Cu2Se2,mp-567657
0.48989999999999956,-0.20546554366666642,In2Si2Te6,mp-567931
2.1309,-1.8390651124599995,Hf2Br2N2,mp-568346
0.0,-0.5423177560000007,Ba1Fe2As2,mp-568961
0.0,-0.8161417491666665,Yb4Al4Pd4,mp-569338
0.0,-1.4225871680357134,Eu2P1I1,mp-569689
0.0,-1.0051772258571432,Pr1P2Ru2,mp-570236
0.0,-0.2446277562500002,Tb16Cd4Co4,mp-570592
0.0,-0.3096727383333331,Y4Os8,mp-570670
0.0,-0.7238717209999997,Pr1Co2As2,mp-571008
0.0,-0.26145389047599965,Fe3Pt1N1,mp-579496
0.0,-0.26322741598591576,Pr26Cd116,mp-581655
0.0,-1.0639864877708334,Ta2Ag2S6,mp-5821
0.0,-0.7863143260000001,Gd1Ni2As2,mp-582433
1.7732999999999999,-0.9926305847614287,Ba16Li4Mo8N28,mp-6011
3.6407,-1.9768267475694437,Tl4In4Mo8O32,mp-605771
0.0,-0.755042814047619,Ca12In4Au12,mp-606503
0.0,-0.25814253166666745,Ti1Co3,mp-608
1.1262999999999999,-0.1989916181494247,Cs18Zn3Ge24,mp-619101
0.0,-0.012118108148148057,Tl21Sb6,mp-621624
4.3841,-3.3054339836008335,Ti1Cd1F6,mp-623024
0.0,-0.8002532841666664,Ce24In2Pt14,mp-637609
0.0,-1.2364271886645966,Zr56P36,mp-647729
0.22820000000000018,-0.7493225112820514,Ca10In4Sb12,mp-649479
0.0,-1.7196078732812505,Yb8Se12O48,mp-649509
0.8148999999999997,-0.31261366549019615,In14Te20,mp-669311
0.0,-1.819243106964286,Ce6Si4S16Br2,mp-669378
0.0,-1.774357882127194,Ti14S24,mp-673657
2.1642,-1.8792569384449997,K2Nb2Cl12,mp-675801
3.5448999999999997,-0.4802402584685715,Ca2N12,mp-676
0.0,-3.2808756581674907,Ca18Eu2P12S3O48,mp-677016
1.6764999999999999,-1.3137303681992192,K12Ta8S44,mp-680400
0.0,-0.3310830144444452,Zr10Zn2Pb6,mp-696132
5.1055,-1.973987393586608,Tl2P4H10O16,mp-696762
2.7516000000000003,-3.0321823674643356,Cs8Zr6Mn2P12O48,mp-705889
4.3306000000000004,-3.4191180446238096,Ca12Al11Si3Cl5O32,mp-720971
0.0,-0.4339976147619045,Cr2P4,mp-7291
4.0762,-3.2291631554999993,Na1Tm1O2,mp-754825
3.0378,-0.9052004730555565,Ni2I4O12,mp-755246
4.5853,-3.3273697297844826,Al22Tl2O34,mp-758571
0.19190000000000018,-1.883636713125,Ca1Cd3O4,mp-760403
0.0,-1.46006600475,Ti6Pd2O2,mp-760414
4.4386,-2.4783974938950895,Sn4P16O44,mp-767114
0.0,-1.454719844632353,Bi12Ir12O44,mp-772189
0.0,-2.0325200927556817,Ba18Rh16O54,mp-772389
2.8194999999999997,-2.554363577032052,Na6Si2Sn2B2O14,mp-772986
2.7710999999999997,-1.9789245588571427,Na7Nb1O6,mp-777584
1.6186999999999996,-0.46084626642857124,Al2Zn1Te4,mp-7908
0.0,-0.9967753023571433,La1Ni2P2,mp-8250
1.762,-2.1649091131562503,Na1Gd1S2,mp-8260
5.775500000000001,-2.2183499244575002,S1F6,mp-8560
2.3528000000000002,-1.3003951742678572,K2La2Si2Se8,mp-861606
3.7163000000000004,-3.1702930504166664,K2Na2La2Ta2O10,mp-861868
0.0,-0.34970919249999977,Cd1Sn1Rh2,mp-861877
0.0,-0.3212195837500005,Li1Lu2Os1,mp-861963
0.0,-0.6799289449999995,Be1Ga1Rh2,mp-862291
0.0,-0.4349751906249999,La2Hg6,mp-862332
0.0,-0.2971465927083332,Pm1Mg1Ag2,mp-862936
0.0,-0.3963191137500006,Pm2Cd1Si1,mp-863654
0.0,-0.40185667125,Zn1Cu1Pd2,mp-864661
0.0,-0.05493599999999965,Dy4Mg2,mp-864888
0.0,-0.32655342124999986,Mg1Sn1Ir2,mp-864906
0.0,-0.0439849249999984,Mn2Cr1Co1,mp-864955
0.0,-0.1579318324999992,Mn2Al1Cr1,mp-864988
0.0,-0.7237691374999997,Hf1Mg1Pd2,mp-865049
0.0,-0.4353280625,Ga1Fe1Rh2,mp-865170
0.0,-0.7948914262500004,Lu1Zn1Pd2,mp-865563
0.0,-0.17941560583333338,Mg1Al1Ag2,mp-865919
0.0,-0.1641106829166663,Ti1Zn1Cu2,mp-865930
0.0,-0.062030655000000046,Ti6Pb2,mp-866184
0.0,-0.33056608249999986,Li1Ga1Ni2,mp-867197
0.0,-0.3744918700000004,Li1Ga2Ni1,mp-867223
0.0,-0.45699406249999974,Be2Co1Ir1,mp-867274
0.0,-0.1486371350000013,Be1Cr1Ru2,mp-867837
0.0,-0.694884589166667,Nd2Ir4,mp-890
0.0,-1.5562409575,Y1As1,mp-933
0.0,-1.0094293582407405,La6Ti2Sb10,mp-9333
0.0,-0.7750486488571425,Ba1Ni2P2,mp-9473
0.0,-0.34552587000000007,Yb2Al4,mp-969
3.268,-3.433031323666666,K4Hf5O12,mp-974482
0.0,-0.6028813825000001,Pm2Sn1Hg1,mp-977372
0.0,-0.16131831499999993,Hg1Pd2Au1,mp-977454
0.0,-0.642555453125,Nd1Cd1Au2,mp-977562
0.00649999999999995,-0.42468512419791676,K2Ag6Se4,mp-9782
0.0,-0.5705132802777785,Y4B16Os4,mp-980205
0.0,-0.21154779874999985,Sm4Cu4,mp-980769
0.0,-0.37949222625000045,Pm2In1Ag1,mp-982615
1.2569000000000001,-1.5331881214166674,K6I2O10,mp-984107
0.0,-0.7475608695639998,Ba6Tl2N1Cl1,mp-989542
0.0,-0.16810986583333332,Li2B2,mp-1001835
0.0,-1.203928447864584,Nb1In1S2,mp-1018022
2.5854999999999997,-1.254380604296875,Mg2Se2,mp-1018040
0.0,-0.6769560974999997,Ce2Pd2,mp-1018086
4.0441,-0.9108244950674819,Be6P12N24,mp-1019545
0.0,-2.811213145404352,Cs4Eu4P16O48,mp-1019736
5.2949,-2.35660236838141,K20B4S16O64,mp-1019797
5.323499999999999,-3.0737009672166677,K4Si8B4O24,mp-1019889
1.7263000000000002,-0.9289771172375001,Na8Zn4Se8,mp-1024052
0.0,-0.6347453066666665,Pr2Sn4,mp-1025069
0.0,-0.47114734999999996,Tb1Ga5Co1,mp-1025288
0.0,-0.03303659340499987,Co6H2,mp-1025425
0.0,-0.6875170812500002,Ce2Fe2Si4,mp-1025450
0.0,-0.3375689286899994,Zn4Cr2N6,mp-1029458
0.0,-0.4759315955000005,La1Al2Ge2,mp-10580
0.0,-0.5340297050000006,Eu2Si4,mp-1072248
0.0,-0.5752388649999993,Ho2Sn4,mp-1072865
0.0,-0.8652339624999996,Nd2Sc2Sb2,mp-1077443
0.0,-0.29046804888888844,Zr6Cu1Bi2,mp-1078729
0.0,-0.7211060091666667,Nd2B4Ir4,mp-1078948
0.0,-0.40793892270833343,Nd2In2Ni4,mp-1079595
0.0,-0.5787101961111113,Gd3Si3Ag3,mp-1079690
0.0,-0.6845685158333339,Sm3Cd3Pd3,mp-1079744
0.0,-0.8346965412499996,Ce2Sb4Pd2,mp-1079881
0.0,-0.6903130800000001,Mn1Al1Rh2,mp-10894
0.42790000000000017,-2.180675747708335,Gd4S8,mp-1095479
0.0,-2.6382216242500007,Na2Eu2O4,mp-1101654
0.0,-0.885271041666666,Ce4Sb4Ir4,mp-1101808
0.0,-1.1738954057142859,La4Ni4P4,mp-1102069
0.2995000000000001,-1.777806790520834,Ho4As4S4,mp-1102733
0.0,-0.9781360049999996,La4Si4Rh4,mp-1103155
0.0,-0.3907945330357135,Y6Al2C6,mp-1103810
0.0,-1.2972303420000002,La1Mo6S8,mp-1103974
0.7384,-1.2220309163993335,Ba8Sb4H2O1,mp-1104424
0.0,-0.5107887624999989,Nd10Ir4,mp-1104605
0.0,-0.6219164658333332,Nd9Rh6,mp-1104743
0.0,-0.9698858000000001,Er6Pd8,mp-1104774
0.0,-0.33675020447368587,Pr1Co12B6,mp-1105562
0.33140000000000036,-0.84154550525,La6Cu6Sb8,mp-1105594
0.0,-0.6830944762962964,Nb10Si6B2,mp-1106165
4.5591,-2.869186852814,K2Li1As1F6,mp-1111928
0.0,-1.5726292578640462,Cs2Tl1Ag1Cl6,mp-1113442
1.0594000000000001,-1.32324226175,Na4Pr4Te8,mp-11151
0.0,-0.41615383187499955,Tb8Al8,mp-11225
0.0,-0.5535272249999998,Er12Rh4,mp-11437
0.0,-0.9355544275000005,Lu1Pd3,mp-1158
0.0,-0.8792397108333325,Nd1B1Pt3,mp-11597
0.0,-0.2841370208333336,Ba4Ag4,mp-11840
0.0,-0.3061002266666666,Gd2Ag1Ru1,mp-1184415
0.0,-0.004716616250000527,Ho6Er2,mp-1184718
0.0,-0.45297388437499997,Li1Pm1Ga2,mp-1185409
0.0,-0.1358840162499999,Li1Zn1Ni2,mp-1185421
0.0,-0.2788286816666663,Lu1Ag1Hg2,mp-1185507
0.0,-0.1867364700000005,Mg1V1Ru2,mp-1185620
0.0,-0.46706762125,Pm2Cu1Pd1,mp-1186462
0.0,-1.1928954537499994,Yb1Ho1Pt2,mp-1187571
0.0,-0.4624954529166665,Y1Ho1In2,mp-1187846
0.0,-0.46571371124999983,Yb2Cd1Ga1,mp-1187885
0.0,-0.9756752498229162,Ti2Nb6Se12,mp-1188631
0.0,-2.4644386089375003,Ce2Tm6S12,mp-1188911
0.008999999999999897,-0.20461953562500002,Yb12Ni4,mp-1189509
0.0,-0.6463092212500001,Sr4Al8Au12,mp-1190136
0.0,-0.5711447273611109,Y4Ni4B16,mp-1190178
2.3629000000000002,-2.4103934309821433,Gd2Co1Te2S2O14,mp-1190470
0.0,-2.733765531750001,Li2Nd4Ir2O12,mp-11905
0.0,-0.6365806077272732,Ca2Si14Ir6,mp-1191649
0.0,-0.38730908833333305,Ce11In9Ni4,mp-1192200
3.3238,-2.2045719993488335,Rb2Li4Cd2C4O12F2,mp-1192391
0.0,-0.15132038999999914,Hf18Co2W8,mp-1192784
0.0,-0.3120076165517242,V3Ni20B6,mp-1192799
0.0,-0.9196756113793106,Zr6Al16Pt7,mp-1193272
3.9975,-2.405263838993265,K2Zn4P4H2O16,mp-1193724
1.3924999999999996,-1.9645787927678566,Ba4Sm8Se16,mp-1193757
0.0,-0.6392776278571424,Pr4Sn16Rh8,mp-1194179
2.2279,-2.2962875173094734,K4Mn6V4C2O22,mp-1195006
2.5484999999999998,-2.343454174326923,La4V8I4O36,mp-1196184
0.0,-0.3166739228301888,Sm12Al86Mo8,mp-1197176
0.0,-0.379741893333333,Hf12Mn12Ga24,mp-1197835
0.0,-0.8286978021874996,Ho20Ir12,mp-1197997
4.854,-0.9257616216290003,H28N8F4,mp-1198625
1.9120999999999997,-2.5381364490667644,Ba16Cr4Ga8S24F16,mp-1199018
0.0,-0.365830708,Nd4Cd2Ni4,mp-11991
0.0,-0.6460817368421061,Ho6Si24Ru8,mp-1199895
0.0,-0.585331739250001,Zr10Ga20Ni10,mp-1200150
3.9252000000000002,-3.336044313798077,Ca8Al32Pb4O60,mp-1200432
4.845700000000001,-3.083818125685066,Na4Sc4P8O28,mp-1200860
0.0,-0.20135466775000027,La12Co26Sb2,mp-1203722
0.0,-0.9157246157499991,Ca20Si6Pt14,mp-1205012
3.9976000000000003,-2.7346005703684817,Ba2In4P8O28,mp-1205018
1.8506999999999998,-3.0731770212500003,Ba2Ta1Fe1O6,mp-1205671
0.0,-0.23485045199999988,Tb4Mg2Cu4,mp-1205707
0.0,-0.2714711644444441,Tb3Mg3Ag3,mp-1205829
0.0,-0.41871227878787853,Ce2In8Rh1,mp-1206465
0.0,-0.9689924568571435,Eu1Mg2P2,mp-1206478
0.0,-1.059384714999999,Y1Ni1As1,mp-1206718
0.0,-3.073474897500001,Ba2Sc1Re1O6,mp-1206861
0.0,-0.6268695900985222,Cs1P2Ru2,mp-1207015
0.0,-0.8759740049999998,Lu1Bi1Pd1,mp-1207185
0.0,-0.2948325803773586,Tm12Ta8Al86,mp-1208183
0.0,-0.34734249259259303,Ti10Cu2Sn6,mp-1208239
2.6481,-2.2201697196874997,Tb4S4Br4,mp-1208299
0.0,-0.8945353699999998,Tb4Sb4Ir4,mp-1208331
0.0,-2.9623473086920864,Ti6Tl2Si4P12O50,mp-1208411
0.0,-1.1637259966666664,Tb16C8Br12,mp-1208505
2.5128000000000004,-2.355740659435218,Ta12Te16Cl4O60,mp-1208669
0.0,-0.9793575459999999,Sm4Si10Rh6,mp-1208907
5.2784,-2.897507584641098,Rb4Be4P4O16,mp-1209324
4.7975,-2.5325529571237073,Rb8Nd4Cl20,mp-1209524
0.44750000000000023,-1.4597935795312498,Pr4As4Se4,mp-1209547
6.3697,-3.747583221142457,Rb8La4F20,mp-1209616
3.4471999999999996,-1.4382696843653624,Na2In2H24Se4O28,mp-1210406
2.6999999999999997,-2.0322875388461537,Mg2Zn4As4O16,mp-1210656
0.0,-0.7040998031249996,Lu6Fe4Si6,mp-1210813
0.0,-0.6548889716666663,Ho4Zn4Ge4,mp-1212073
0.0,-0.6851864814285717,Ho4Al18Pd6,mp-1212359
0.0,-1.2844564295238103,Gd12B4Br12,mp-1212672
0.0,-0.2972891423863628,Er8C14,mp-1212833
2.8375,-3.4512451846590917,Dy6Sb2O14,mp-1212841
0.0,-0.8213475171212123,Er10In8Pt4,mp-1213169
0.0,-0.3323345693710693,Er12Ti8Al86,mp-1213416
0.0,-2.039836903499999,Ba2Sm1Cu4O8,mp-1214577
0.0,-1.1305596594140628,Ta6Mn1C3S6,mp-1218119
1.803,-2.5893962272500013,Sr2Fe1Sb1O6,mp-1218824
0.0,-0.2273079988333329,Mg4Cd1Ag5,mp-1222139
5.597799999999999,-2.9247527068373014,Na4Nd4P16O48,mp-12226
0.22850000000000015,-0.24704203473684241,Li28Mg2Si8,mp-1222798
1.5653,-2.90131908692,K2Nb1O3F1,mp-1223800
1.9806999999999997,-2.128902567386642,La18In2Si6S42,mp-1224434
0.0,-0.35086278625000045,Hf1Ga3Ni12,mp-1224540
0.0,-0.421545612500001,Hf4Al4Fe4,mp-1224642
1.7671999999999999,-2.0047258054612502,Fe8As4O16F4,mp-1224755
0.0,-0.3739756718750007,Ga1Si1Ni6,mp-1224834
0.0,-0.3301114738888889,Eu2Cd2Ag2,mp-1225230
1.0099999999999998,-2.954535153854167,Ba1La2Fe2O7,mp-1227917
2.6712000000000002,-2.623510772694444,Ba6In4W2O18,mp-1228476
0.0,-0.4415113074999999,Al1Ga1Co2,mp-1228893
0.0,0.0,Fe1,mp-13
0.0,-0.006803635769229616,Ho1Mn12,mp-14015
0.0,-0.11444666388888909,Ti2Cr4,mp-1425
3.1239999999999997,-3.4611224701388883,La2Ta14O38,mp-14485
1.5535999999999999,-1.6505781225000002,Ca1Te1,mp-1519
0.0,-0.9786306531481486,Er6Si18Rh30,mp-15307
1.0070000000000001,-0.3807798335714284,Zn1Ga2Te4,mp-15777
0.22490000000000077,-3.4579061693333335,Ce1Sc3B4O12,mp-16097
1.8172000000000001,-3.251319181249999,Pr12Re4O32,mp-16163
0.4923000000000002,-1.2231758900000003,Dy1Sb1Pt1,mp-16327
0.0,-0.27940436749999975,Li3Hg1,mp-1646
0.0,-1.0114177504166673,Er8Si8Pd8,mp-17093
0.0,-0.9475640380952384,Yb22Sb20,mp-17402
0.8171999999999999,-2.6161720334374996,Be6Cd8Si6S2O24,mp-17493
0.0,-0.42034213204545395,Ca4Al32Co8,mp-17871
0.0,-0.31801711428571416,Sr2Ni8Sn4,mp-18127
0.09779999999999989,-1.5434746753472228,Sr2Co12O22,mp-18381
0.0,-0.42389016749999975,Nb1Al3,mp-1842
0.0,-0.7115025129365082,Sr2Ni10P6,mp-18632
3.0462000000000002,-1.829569677348485,Ni6B4O12,mp-18806
1.9546000000000006,-2.003861339854999,Mn2O2,mp-19006
2.6445000000000003,-3.0622400916666677,Sc2V2O8,mp-19247
1.9671000000000003,-3.2068330008459993,La2Mg1Mn1O6,mp-19406
0.0,-0.36995185363636424,Ti12Sn10,mp-20382
0.0,-0.43925850375000053,Nb4Ni4Te8,mp-20506
0.0,-0.37501498055555554,Ho3Mg3In3,mp-20538
0.0,-0.4048625339999994,Yb1Mn2Ge2,mp-20670
0.0,-0.7866166910416675,Co4S8,mp-2070
0.0,-0.49146532916666646,Mn4Si4Ni4,mp-20949
1.1437000000000008,-2.646482603833751,La4Mn8O20,mp-21444
0.0,-0.31977405833333467,Y1Ni5,mp-2152
1.8488000000000002,-1.7732569358796297,Fe4Ni8B4O20,mp-21522
0.0,-0.4496348746153842,Er2Si4Ni20,mp-21548
0.0,-1.325754763750001,Tl4Ru4O14,mp-22094
0.03829999999999956,-1.077815051666666,Er4Si4Rh4,mp-22114
0.0,-0.5517514849999996,Ge4Rh4,mp-22239
0.0,-0.5839504768333328,Mg4Si2B4Ir10,mp-22250
0.0,-0.4373675383333335,Hf6Co6Sn6,mp-22315
0.0,-0.4828962220000008,Tb1Mn2Ge2,mp-22486
0.0,-0.10567083416666752,Te8W4,mp-22693
0.0,-0.6408785716666673,Dy2Fe2Si2,mp-22698
0.060100000000000264,-0.6513028008333333,Ca8Sn4,mp-22735
2.0006,-2.414027252380952,Ca2In4O8,mp-22766
5.5569999999999995,-2.0419103642566667,Li4Al4Cl16,mp-22983
0.45119999999999993,-1.470702704864046,Cs6Cu6Cl18,mp-23032
0.18130000000000002,-0.7609033542290908,Hg10Cl4O8,mp-23358
0.0,-1.1246103468749993,Y4C1I5,mp-23382
5.2117,-2.728647931075,K3B6Br1O10,mp-23612
5.4356,-2.6420514852561117,Mg8B8H8O24,mp-23748
4.793699999999999,-2.9008828075778137,Rb2Sc2B2P4H2O18,mp-23809
0.0,-0.7240594182466668,Nd1H2,mp-24096
4.2024,-1.5124910578182167,Cs4Al4H96Se8O80,mp-24523
3.0290999999999997,-2.5523068480654763,Li12Mo12P24O96,mp-25983
1.009,-2.567650256329366,Li4Mo8P12O48,mp-26086
1.1435999999999997,-2.42231547119898,Mo4P4O20,mp-26372
0.0,-0.3247614300000006,Al1Fe1,mp-2658
0.0,-0.6149747110714285,Mn4P4,mp-2662
3.9179000000000004,-2.62104243232143,Li6Mo4P6O24,mp-27003
1.2305,-1.5178854695900001,Na4Fe4Cl16,mp-27514
4.0363999999999995,-0.26652913193714295,P2H8Br2,mp-27689
0.0,-0.5208791977499999,V6As2C2,mp-27769
1.7924999999999995,-0.36054910175000005,Li12P28,mp-28336
0.0,-0.6880839445833331,Hf6Fe6Si12,mp-28378
0.0,-0.788053607272727,Ta5B6,mp-28629
0.0,-0.6075608939999995,Hf3Te2,mp-28919
0.0,-0.5936242019999994,Dy1Si2Cu2,mp-2917
0.0,-2.508975152221905,Ba4Cu10F28,mp-29457
0.0,-2.309655384325,Sc7N1Cl12,mp-29579
0.0,-1.4323428619837035,Pr3B2N4,mp-29587
0.0,-0.8736450549999999,Sr10Bi6,mp-29620
0.0,-1.5270906460714286,La12Si4Br12,mp-29995
1.1547,-1.2369290566972007,W12C2Cl36,mp-30295
0.0,-0.6757908950000001,Ba1Sn3Pt1,mp-30433
0.0,-0.27270788928571427,Bi4Pd10,mp-30464
0.0,-0.5505783894444447,Y3Ga6Ni9,mp-30659
0.0,-0.8252500449999998,Li1Al2Pt1,mp-30819
0.0,-0.42346597885714266,Sc114Rh26,mp-30863
2.3217999999999996,-0.8590595751488094,Ga4P4S16,mp-30979
2.4679,-2.267540423120968,Na28Al8O26,mp-31008
0.0,-0.28921175875000005,Ca10Ag6,mp-31172
0.0,-0.8865147813636356,Nd8Ge6Rh8,mp-3375
0.0,-1.4739404386900006,Pr1N1,mp-343
0.0,-0.6282619559999987,Y1Mn2Si2,mp-3854
0.0,-0.29719458150000005,Na2Zn2Sb2,mp-4247
0.0,-0.12737509923076884,Tm1Mn6Sn6,mp-4298
0.0,-0.60379103,Mg1Au1,mp-437
0.9988000000000001,-1.1004829369921882,Pd2Se4O10,mp-4649
0.0,-0.6296256974107148,Nb24P8,mp-505528
4.3382000000000005,-1.8119766895055547,K8Na4H20C8O32,mp-505771
1.1156000000000006,-1.7161613645312501,Sm4Cu4S8,mp-5081
1.7774999999999999,-1.9326018229947917,La6Cu2Sn2S14,mp-510566
0.0,-0.20984463833333322,Hf2Zn4,mp-514
0.0,-0.6851527247222222,Er1B2Ir3,mp-5197
0.1323000000000003,-1.841806520595239,V12Co24O48,mp-530941
4.9658999999999995,-2.4663077639999997,Mg2C2O6,mp-5348
0.0,-0.7612335170689664,Sc6Si7Ni16,mp-5382
0.0,-1.1191725030000002,Er1Si2Rh2,mp-5386
7.2936,-3.879228239682222,Ba4Li4Al4F24,mp-543044
0.0,-0.2441662625000003,Mn1Al1Au2,mp-5491
4.045999999999999,-3.006222060285333,Ba1Sb2F12,mp-554765
2.0975,-1.2969713144741377,Rb2Na4Au2O4,mp-555018
2.0173,-1.0289610976399999,K2Au2N8O24,mp-555085
2.5345999999999997,-2.870555845874384,Cs1Nb1P2O8,mp-555286
0.0,-1.7802478926785723,Ce6Si4S16I2,mp-555409
3.6203000000000003,-2.539597904764589,Rb2Al2Sb2O7,mp-556275
0.0,-2.385295065986843,Tb18Sb10O10,mp-556920
3.435,-2.17894348206,Ca4As6Pb6Cl2O24,mp-557347
1.7062,-2.8713496519044446,Li2Fe4F12,mp-557403
2.0126,-2.603067162008928,Sr2Fe6P6O26,mp-557942
3.6235999999999997,-2.8903822121428573,Ca4Mg4Ge4O16,mp-558362
2.1816999999999998,-3.7470517028393338,Na1Zr2V1F11,mp-558441
0.0,-1.2705785512499999,Yb4I12O36,mp-558464
3.9694000000000003,-2.7111155884623046,Na9Zr1P4Cl1O16,mp-559150
2.341,-1.7287282704934206,Sr1Fe2Se4O12,mp-560149
3.7737,-2.849140400589311,Rb8Sb8O4F40,mp-560504
2.2565999999999997,-2.1762782345833336,Ba8Cu4I4O8,mp-561179
1.940599999999999,-2.709883302225001,La40S56O4,mp-561194
0.7267000000000001,-2.3948279725769717,Cs4Si2Cu1O7,mp-561495
0.0,-3.2924004985760873,K4Eu2Ta10O30,mp-565929
0.0,-0.2758881783333346,Gd1Mg2Ni9,mp-567249
0.0,-0.4471985905555555,Yb2In8Pd2,mp-567404
0.0,-1.0779760489999988,Ho1Si2Ir2,mp-567513
0.0,-1.0982010182060002,Tl8Co8Cl24,mp-567620
0.0,-0.11965130083333324,Tb4Mg16Cu4,mp-567690
2.3927,-1.0474258262931033,Rb2Sn4Br10,mp-567780
0.0,-0.31774886250000023,Y4Ru8,mp-568186
0.0,-0.254157014791667,Nd1Mg2Ni9,mp-568207
2.1632000000000002,-0.4525721173958335,Si2Se4,mp-568264
0.0,-0.42742353333333316,Yb4Ag4,mp-568629
2.3255,-1.8492096679839651,Cs2Pr18Nb2Br30N12,mp-568707
0.0,-0.595793831333333,Ho4B16,mp-569281
1.5838,-0.942961914108,Sb4I4Cl32,mp-569512
0.0,-0.19923517916666592,Sm4Os8,mp-570007
0.0,-0.243625317083333,Mg6Ga14Co4,mp-571626
0.0,-0.5562039133333343,Zr4Rh2,mp-571664
0.0,-0.15472398447599858,Fe3Rh1N1,mp-580234
0.0,-0.2069777091666669,La16Cd4Co4,mp-581510
0.0,-2.6671214411950004,Ce2Cl6,mp-582011
0.007500000000000284,-1.037973597498041,Cs2Zr12C2I28,mp-582176
0.0,-1.1839676594736845,La8Ni4Br7,mp-582242
0.0,-3.233537707582417,Eu2Zr12P18O72,mp-582856
0.0,-0.9723583090625003,Ba8Sn4Te20,mp-583630
5.439,-3.2417039848697318,Mg32P16O64F16,mp-6095
0.0,-0.6200358720138889,Ce1B2Rh2C1,mp-6191
0.0,-0.5331562112121214,Zr10In8Rh4,mp-632693
0.0,-0.39936668923076996,Gd2Al6Si4Au1,mp-638442
0.0,-0.22593191687500092,Te6Pd26,mp-638586
0.0,-0.5853008053409083,Hf6Al6C10,mp-642493
0.0,-0.6924598349999999,Pr1Ga2,mp-668
3.7554000000000003,-2.385018863221428,K2Sn8P6O24,mp-6755
0.11969999999999992,-1.8554868181064286,Nb12Br17F13,mp-676330
0.0,-2.022544025000001,Ba2Pr1Cu4O8,mp-6779
0.0,-1.0834397617857137,Ce24C12I34,mp-684020
1.5392000000000001,-0.9824901208396292,Li80Ti16N48,mp-686129
0.0,-0.4718986250000001,Ca2Ga2,mp-6914
3.7778,-2.061719084192308,Na8Ca4Pb12C20O60,mp-697211
0.0,-0.28421556999999975,Ce1Hg1,mp-702
0.0,-2.197475711101352,Na1W9O27,mp-756681