band_gap,formation_energy_per_atom,full_formula,task_id
3.1723,-3.041753700840337,Zr8Mo4P8O48,mp-12540
0.3370999999999995,-2.1860340535416682,Nd4S8,mp-13568
0.8241999999999998,-0.977097417916666,Ba32Ge8As32,mp-14002
4.6662,-3.726357316250001,Ho12Al20O48,mp-14388
1.2783,-1.355395335867457,Rb4V2Cu2S8,mp-15219
2.7097,-2.2508630134062506,K1La1S2,mp-15781
2.1407000000000003,-1.7906695399999994,Zn6As4O16,mp-16834
2.6688,-2.996894566022728,Nd4Sn4O14,mp-17114
3.7059,-2.713075288457792,Sr4Ni4P8O28,mp-17551
3.2775,-3.8803237638020818,Y8Ti4O20,mp-17559
0.9992000000000004,-0.3681345390714285,K16Al16Sb24,mp-17886
1.7616,-0.8784656058261492,Cs4Cu4S16,mp-18003
5.6663,-2.6842564477891533,Rb4Dy4S8O32,mp-18109
7.0612,-4.326941471421429,K2Er6F20,mp-18451
3.2576,-2.8533160335,Na4Gd4Ge4O16,mp-18547
0.00649999999999995,-0.7834538525000001,Er4Ge8Ir4,mp-18606
2.0463,-1.752860065416666,Cr4Pb4O16,mp-19146
1.6688000000000005,-1.6877451585416663,Cr1Ag1O2,mp-19378
2.465,-3.0155974840138238,Ti4Mn1P6O24,mp-19383
2.059,-3.2483906307260533,Ba5Gd8Mn4O21,mp-19485
2.3598000000000003,-1.4142735255769234,Ni12As8O32,mp-19519
0.0566999999999993,-0.636409585,Gd2Cu2Sb4,mp-20502
2.7294000000000005,-2.2514122107499985,Li4Cr4Ge8O24,mp-21549
3.0002,-1.576751945641026,Te18Pb12O48,mp-21922
0.03310000000000013,-0.4626524588888898,Gd1B2Ru3,mp-22335
4.5304,-2.052631578333333,Ca2Br4,mp-22888
2.7118999999999995,-2.161051709000001,K2Bi2W4O16,mp-23136
2.9251000000000005,-2.030504219375,La2Br6,mp-23263
0.5651000000000002,-0.2368778542857142,Cu2Hg1I4,mp-23353
1.2341000000000002,-0.0030017241249997717,Na8Si8,mp-2402
2.4129,-0.9829777984899998,Tl2H8N2Cl8,mp-24375
3.6628,-0.7362737113541663,B12S12Br12,mp-27245
4.4528,-1.575165046134572,P4Cl12O4,mp-27277
2.9919999999999995,-2.8266593957833344,V8F40,mp-27309
1.4364,-1.1884938700675007,Mo4S8Cl12,mp-27866
1.6561,-0.2979278603571431,Al8P16I72,mp-28046
1.8439,-0.8608994510365003,Ir4S12Cl44,mp-28211
1.5217999999999998,-1.307243288791667,K24Cu8O16,mp-28273
1.6895000000000002,-0.5984633494176137,Tl12Se2I8,mp-28517
0.5519000000000003,-2.379612973369523,Mn8B4O16,mp-28943
4.9813,-2.5193848762566673,Na2Er2Cl8,mp-29083
1.2999,-0.3616877584201384,Ag4Te2S6,mp-29163
0.6162999999999994,-0.2463423909201392,Tl4Ag4Se4,mp-29238
4.1644000000000005,-2.3073972406079997,Hf2Cl8,mp-29422
3.9322,-0.12602734923318665,Si4P16H32,mp-29549
1.3724999999999996,-0.4202447385714283,Mg2Si2P4,mp-2961
4.1797,-2.081131040948,Mg1H2O2,mp-30247
1.5866000000000002,-1.2868819695803586,K8Ta8S40,mp-31308
1.4545,-1.8664570843100008,K4Ta6Cl18,mp-31360
0.7083000000000004,-0.3824975366666668,Ta1Sb1Ru1,mp-31454
1.1637,-1.1612873621938768,Ba8P5Br1,mp-34034
2.8458,-1.2036278549107142,Ca2Al4Se8,mp-36988
2.222,-1.5004595938988103,Sm8P8S32,mp-3897
1.2541000000000002,-3.3748172000841667,Pr2S2F2,mp-3992
1.0661999999999998,-1.2613696715312503,K1Cr1S2,mp-4026
1.7277,-2.247377450000001,Cd4Si2O8,mp-4530
1.7778,-2.0409873304947923,La6Cu2Si2S14,mp-504650
4.1381,-1.1637681452777784,Sr2Br4O12,mp-504910
0.006800000000000139,-0.8743405175000005,Dy24Te12,mp-505682
2.6724,-1.9142066057602385,Fe8P8H32O48,mp-510510
0.009400000000000295,-1.5075192083522737,Ta27S50,mp-530018
2.8188999999999997,-2.9698230361224494,Al28Fe14O56,mp-531674
2.4053,-2.790828080330784,Rb8Ti4Fe4P12O48,mp-532655
3.7527,-3.1345614762244907,Zr4Cd1P6O24,mp-541299
3.5305,-3.4579792257031245,Sr2Ta8O22,mp-541462
1.3839,-0.3814963992288305,Ta4Se34Br24,mp-541758
3.4757,-2.9567777713910663,Cs8Ta6O19,mp-542069
0.06269999999999998,-2.2734976275499994,Ba6Na2Ru4O18,mp-542123
4.3172,-3.771485190833334,Lu2Ta2O8,mp-5489
1.9756,-0.9421415820312502,Tl3V1S4,mp-5513
1.7271999999999998,-2.077033186785713,Ta4Bi16Br4O32,mp-554207
2.3298,-1.67251051025,K8Bi48Br8O72,mp-555393
3.0256,-2.5732198993807143,K2Re4O8F14,mp-555490
1.6129,-2.8599413211904756,Ba1Mo1P2O8,mp-555549
1.9094,-0.9531674872525552,Rb4Ag4Ge2S8,mp-555852
0.5669999999999997,-1.9822612828125004,Sr8Pt8Pb2O22,mp-556331
3.996,-2.758986804917144,Ba10As6Cl2O24,mp-556761
3.7139,-3.075307695527143,Tm4Mo4O16F4,mp-557086
2.801,-2.5099509357665792,Ho11Te16Cl1O48,mp-557285
4.241600000000001,-1.5701003823618755,Ba1Si6N8O1,mp-557414
3.7887,-2.158562349009616,Na4Cd2S4O16,mp-558198
2.5434,-2.512633494280172,Cs2Mo8P14O56,mp-558321
1.4329999999999998,-3.3797084010056264,La12Nb4Se8O16F8,mp-558478
5.392200000000001,-3.396628075916668,Tm12B20O48,mp-558534
5.8336,-3.625308756842644,Na8Sr8Al8P4O16F36,mp-558954
3.3851000000000004,-2.5944838660642877,K8V4P4O24,mp-558956
4.5391,-2.1273509628334155,Rb4Zn4S4Cl4O16,mp-559540
3.4184,-2.8356284204027777,K12Sm4B8O24,mp-559574
2.5583000000000005,-2.161932872853181,Nd24Si8S48Cl8,mp-559779
0.9438,-0.9232119408854176,Au4Se6O20,mp-559824
3.895,-2.3790989081794867,K16Zr2Mo12O48,mp-560406
0.04499999999999993,-3.2177315939612665,Ba12Nb28Si8O94,mp-560469
4.5937,-2.629471853046935,Rb2Na2Li12Si4O16,mp-560653
3.9519,-3.502099196348889,Ba4Li4Cr4F24,mp-560949
3.7904,-2.365490424125757,B2Te6O6F30,mp-561226
0.5246999999999999,-3.4018607392837774,Na1Zr2Ag1F11,mp-561400
2.1768,-1.927690355791428,Nb8Tl8Cl32O8,mp-561523
2.6678,-1.3040478853927204,Rb8Ag4Br12,mp-567714
2.0775,0.0,C16,mp-568286
0.0726,-1.24597703325,Pr7Co1I12,mp-569261
1.6133,-0.3998151543848216,K4Bi4P8Se24,mp-569435
2.0045,-1.1732058626772726,Bi4W24Cl60,mp-569822
0.6648000000000001,-0.6311001035563566,Ti12Tl10Ag2Se54,mp-570021
1.0057999999999998,-0.8325779191836732,Sr1Li4P2,mp-570097
4.0135000000000005,-2.054213987144953,K2Rb6Cd2Cl12,mp-570158
1.9325000000000008,-1.429616858456,Mn4Tl4Cl12,mp-570300
0.012799999999999924,-1.1419209593548392,Pr12Fe2I17,mp-570462
1.1454000000000002,-0.29692444689505554,Rb4Ag8As12Se24,mp-570593
1.258,-0.4692436872413793,Cs4Si4Te12,mp-570957
2.5129,-0.9430743152533336,Sn4I4Cl4,mp-571146
2.4126,-1.1669908991918116,Cs8Ge8S20,mp-572598
0.5045999999999999,-1.3340150832480238,Cs2Sm2Mn2Se6,mp-574651
5.8870000000000005,-3.5280095828571434,Dy2P2O8,mp-5767
5.0722000000000005,-2.4759811178973794,Cs2Na1Sm1Cl6,mp-580541
1.2526999999999997,-1.1035313453796038,Cs2Tm4Cu6Se10,mp-581749
4.946999999999999,-3.271042453902658,Cs6Zr3Si18O45,mp-581877
1.1834,-0.7441543395258621,Cs2Ta2I12,mp-606510
7.6455,-3.89096038246,Li2Ca2Al2F12,mp-6134
4.8466000000000005,-2.6914081902475373,Rb8P8O24,mp-616587
3.0289,-3.455488778397436,Ba3Ta6Si4O26,mp-6169
4.412,-3.0162014365300003,Sc2H2O4,mp-625150
2.3351999999999995,-1.5131930229480006,Fe1H2O2,mp-626680
0.6046,-2.2343434416622228,Ba10Os6N2O36,mp-628618
6.7187,-1.7815241524049998,H2F2,mp-632296
3.9568,-3.154817815337221,La3C3O9F3,mp-638731
3.4494,-1.5763463424797557,K12Pr8N36O108,mp-649608
1.3321,-1.1455257142452202,Cs8Re12S26,mp-652494
4.945,-3.4463164895192313,Ca8Al16Si16O64,mp-6532
1.5506,-1.3148632123942618,Cs12Nb8S44,mp-669313
3.9207,-2.651970879896429,K12Ga8P12O48,mp-6805
3.3919,-2.9810956634099997,Na8Li4Fe4Si24O60,mp-6838
0.9016000000000002,-2.72837674975275,Na3Ca10Mn7V12O48,mp-694988
5.1997,-2.381631976675055,Na8P8H8O28,mp-698063
3.2182,-1.8609822331458823,Na16Zn8Ge16H32O64,mp-699457
2.4458,-2.8094547643673478,Ba2Nb4Fe4P12O48,mp-705895
4.6154,-2.5596803245933337,Na16B24H8O48,mp-706631
5.1135,-2.4775867100348568,K4Zr4Zn2H24O12F24,mp-707219
4.2592,-1.4800222958915474,Te2H18S2N4O10F6,mp-707276
3.0165,-2.560670319450848,Mn9Al2Si8H8O32,mp-707875
4.4143,-0.9732755175895229,Zn4H48N12Cl20,mp-723044
1.6658,-2.8507565449800008,V4O4F4,mp-754589
4.4855,-3.8428768287500006,Ca4Hf4O12,mp-754853
2.4658,-2.5827621277835284,Na18Fe6P16O58,mp-761065
4.1163,-1.8398759005750005,K4Na2Zn4H10C8O28,mp-766427
1.2894,-1.1893804866374995,K4S6,mp-7667
2.3961,-1.7411785388082357,Zn2Fe4As4H4O20,mp-766713
3.1610000000000005,-1.7791693135406403,Rb12Sb4O12,mp-768232
0.6132000000000001,-2.0199535962710296,Mn8S12O48,mp-768472
3.7129,-2.8131300574999987,Pr2As2O8,mp-768863
2.4709,-2.132008799642857,Li8Co4Ge12O32,mp-769597
3.304,-1.892012648730769,Na6Ni2As2C2O14,mp-770940
2.9353,-2.1668773021944445,K12Ge12O30,mp-771185
3.7019,-1.560021157222223,Sr4I8O24,mp-771750
2.3698,-3.1103203159614283,Li8Ti12Mn4O32,mp-775865
3.6121,-3.3547377044444446,Tm8W4O24,mp-778814
3.1087,-2.240653704375,Li4Zn2Ge2O8,mp-8184
0.5696999999999997,-0.8503380068571431,Ba8Ge4P8,mp-8194
1.556,-1.1058375681845238,Zr2P4S12,mp-8203
3.1636,-1.6915242248697917,Ba2Al8S14,mp-8258
1.2193,-1.6453814004336738,Sr4P2O1,mp-8298
0.6694,-1.5863947869642858,Ba4As2O1,mp-8300
4.6593,-3.468762567583333,Pr4B4O12,mp-861504
2.6232000000000006,-1.307653511963809,Ca8P4N12,mp-8977
0.5670000000000002,-0.3366944966666665,Nb1Fe1Sb1,mp-9437
1.9007,-0.9573826713392856,Tl4I6O18,mp-978990
0.7153,-2.1553765915175007,Zn1Co1F6,mvc-15842
1.909,-1.7548365369218748,K1Sm1Se2,mp-1006891
0.006699999999999484,-3.4161058215789466,Tm5Re2O12,mp-10094
4.222099999999998,-2.6377705302280696,Na24Zn8B40O80,mp-1020160
1.9130000000000005,-2.108671784145834,K8Sn12O28,mp-1024073
0.3495999999999997,-1.7886414507733337,Ca3Hf3N6,mp-1029359
2.8241,-0.5673860575065969,Rb6C3N6,mp-1029784
1.5017999999999994,-0.3024149870019997,Na64Ge32N64,mp-1029851
0.06639999999999979,-1.0749285000000004,Gd1Tl1Te2,mp-1065609
1.2448,-1.1685605708250002,K2Pd1S2,mp-1068941
0.34080000000000066,-1.7659355613541674,Er4As4S4,mp-1095614
0.07900000000000063,-0.8946543016666659,Hf4Si4Ni4,mp-1101952
0.03169999999999984,-1.1976391791666667,Dy4As4Pd4,mp-1102068
0.936,-0.6868526237351192,P4Os4S4,mp-1102534
3.3127000000000004,-3.455870331916666,Sr3Mg1Ta2O9,mp-1103508
1.3156,-0.2720684621242861,Li2Ca4H2C6,mp-1104693
4.563599999999999,-2.812182593905379,Cs2Na1As1F6,mp-1112596
2.9127,-2.48290402064738,Cs2Na1Gd1Cl6,mp-1112657
2.7492000000000005,-3.914751316594828,Sm2Zr8O19,mp-1173100
0.07679999999999998,-0.5771906466666664,Ba2Sn2Hg2,mp-11819
0.2667999999999999,-0.024617428266666557,Mg149Sb1,mp-1185628
0.2710999999999997,-1.0754388190000008,Ce6Sb8Pt6,mp-1188608
2.0516,-2.1327146009375,Y6Ga2S12,mp-1189598
0.2416999999999998,-3.2140475676136373,La2Tb4Ru2O14,mp-1190489
0.3398999999999992,-1.7829064145684523,Y8P8S8,mp-1191026
4.0657000000000005,-1.2048493889519996,Mg1Be2N2,mp-11917
1.5235,-2.566297934285715,Gd4Mo4Br4O16,mp-1193134
1.8686000000000005,-1.0935416989608993,Cs8S20,mp-1193140
8.0813,-3.4257167224600003,Li6Si3F18,mp-1193269
0.8744000000000005,-0.8861159948412699,Ca12Si8P16,mp-1194866
5.809799999999999,-1.9872025236966275,B4P4H16N4O16F4,mp-1195775
0.42689999999999984,-2.3778327707608438,Rb4Cu6P8O24F8,mp-1196467
1.584,-0.538408217611985,Ir8Se36Cl24,mp-1196619
1.2008,-0.056090525468750485,Zn4P56Pb4,mp-1197426
3.3721000000000005,-1.5585262864895142,In8Se8Cl8O24,mp-1198762
3.3882,-2.332846766459547,Rb8Mo10P4O44,mp-1199088
0.21629999999999994,-2.299999159873125,Hg4Sb8F52,mp-1199212
0.07269999999999999,-2.5392309068750003,Sm18C18O72,mp-1201399
2.9729,-1.6745501755591257,Lu6H40N8O49,mp-1201491
6.1514,-0.2215975508119042,Na4Zn8B20H80,mp-1201672
2.156,-1.5645647605357138,Te4Pb20O32,mp-1201764
0.6572,-1.1784483407944206,Cs36Fe8S28,mp-1202536
1.5138999999999996,-1.7713670772569456,La8Sb4S20Br4,mp-1202647
5.7729,-2.963704896921137,K8Al4S4O16F12,mp-1203080
4.8716,-2.1476283762645,S8F32,mp-1203812
2.4447000000000005,-2.296578800275975,In4Ag4P8O28,mp-1204248
1.0560999999999998,-0.23072302550000004,Te12Rh2I6,mp-1205361
3.1367,-2.68186064175,Tb6Sb10O24,mp-1208503
6.3511,-3.4911061035711115,Sr2Li2Ga2F12,mp-1208619
0.14490000000000025,-2.3666593638802085,Sr12Fe3Rh6O27,mp-1208805
0.003500000000000725,-0.8232412913333335,Sc4Ga2B4Ir10,mp-1208983
3.3956,-2.676763876278736,Rb2Tb2W4O16,mp-1209144
4.7334999999999985,-2.5145225662566664,Na2Tb2Cl8,mp-1209961
4.6625,-2.5410222402,Na2Sm2C4O12,mp-1210126
1.523,-0.9584367618160712,Na2Cr2P4S12,mp-1210128
1.7712,-1.771092706031251,Na4Zr2S6,mp-1210267
3.9105,-2.7810955627941167,Lu8Mo12O48,mp-1211136
3.5681,-3.2382441244328577,La6Ta2Cl12O8,mp-1211290
3.513,-2.670360739208333,K2Sm2W4O16,mp-1211333
1.5235999999999998,-0.455139444166667,K20Ta4Tl8As16,mp-1211936
3.1065,-0.9925371152653848,K12Si24H24N44,mp-1212001
3.1041000000000007,-2.6395631155172405,Cs2Gd2W4O16,mp-1213254
1.7468,-2.0002796138750005,Cd12Ga8Ge12O48,mp-1213979
4.8261,-2.8030155992853336,Ca1As2F12,mp-1213993
4.6385,-3.4855831974107145,Ba2Zr2Si6O18,mp-1214228
3.6337,-2.7009692805032484,Ba2Ni2P4O14,mp-1214404
1.7986000000000004,-2.4211829456640626,Sr2Cr18Ga6O38,mp-1218679
2.748800000000001,-2.8812875591369047,Sm2Ti2Nb2Bi4O18,mp-1219101
1.2874,-1.8768694144293476,Pr6Ge3S14,mp-1219880
1.2899000000000005,-1.8758645246467391,Nd6Ge3S14,mp-1220256
1.8363,-2.027505213857144,Na4Fe4Sn4O16,mp-1221058
1.1388999999999996,-0.5330945798749998,Na1Bi1Te2,mp-1221102
4.5958000000000006,-3.18786191699,Na6Y2Si12O30,mp-1221246
0.6384000000000001,-0.6473412012968751,Mn1Zn4Se5,mp-1221515
0.8794,-0.4894720007142854,Li2Zn1Cd1P2,mp-1222618
2.3702,-2.803413743189224,Li8Ti4Fe4P12O48,mp-1222972
3.3298000000000005,-3.0029291432500016,Er12Ga20O48,mp-12236
2.166,-2.198585540727778,K2Pr10C4Cl20,mp-1223605
4.2498000000000005,-3.1092080355102043,K2Na2Mg6Zn4Si24O60,mp-1223684
3.2828000000000004,-2.8588342226500005,K4Ca8Mg8V12O48,mp-1224080
0.13699999999999954,-0.29608671333333303,In5Cu1Te8,mp-1224528
0.9238999999999996,-0.32719337735294163,In12Te20Pb2,mp-1224649
1.1128,-2.5789039420962725,Cs3Mn1Zn3P12O36,mp-1226446
1.1934999999999998,-2.45915967205,Ba10Li4Te6O30,mp-1228258
4.002599999999998,-2.7706992443668828,Ba3Fe4P8Pb1O28,mp-1228512
0.6985000000000001,-2.5889790122685192,Ba12La4Co8O30,mp-1228747
1.0907,-3.05525539985,Ba10Nd4Y1Mo5O30,mp-1228897
0.03869999999999951,-0.315375682924528,Dy12Al86Mo8,mp-1232410
0.010600000000000165,-0.24498448617187485,Cu2Hg1Ge1Se4,mp-12855
0.5830000000000002,-0.8224448190000004,Y6Sb8Au6,mp-13654
4.5706000000000016,-3.3555569775637752,Pr12Ge4P4O36,mp-14328
1.1018,-1.0615214307142857,Ba4Si2Te8,mp-14448
5.6046,-2.834905952348485,Li6B14O24,mp-16828
1.5856000000000003,-0.775708918835555,Sr12Ga8N16,mp-16945
2.3423000000000003,-2.4028657285833344,Ba6Ni2Sb4O18,mp-17269
0.9958999999999998,-1.4992425639375009,Zr4Sn4S12,mp-17324
0.7674000000000003,-1.5236147657142858,Co14As4O24,mp-17489
3.5517,-1.8129225239776785,K6Na2Se4O16,mp-17839
3.5318,-1.2838662649236123,Na8Si8S20,mp-18104
1.1648000000000005,-0.3786817389810828,Rb4Ag4Se16,mp-18585
3.2709000000000006,-2.605174219768702,Mn2P2O7,mp-18721
3.8659,-2.2783474333333325,Al1Tl1Mo2O8,mp-18733
3.0265,-3.2322150541666663,Ho2V2O8,mp-18734
1.5634000000000006,-3.2853594207500008,Y4V4O12,mp-18883
2.4009,-1.9612513990909088,Li12Co2O8,mp-18925
1.5713,-3.3220389552500014,Er4V4O12,mp-19205
4.4506999999999985,-2.2539365336699504,Rb4Mo2O8,mp-19212
2.3952,-2.094879409166667,Fe2W2O8,mp-19421
0.13160000000000016,-1.96927541869,Er1N1,mp-19830
0.08520000000000039,-0.17441415833333393,Fe2Te4,mp-19880
1.4105000000000003,-0.2793246469181554,Tl2In2P4Se12,mp-19985
0.6667999999999994,-0.9955806493750003,Ru4S8,mp-2030
0.06230000000000047,-1.0686518966666665,Ho4Si4Rh4,mp-20675
0.10989999999999966,-0.329405263125,Tl8Te6Pb2,mp-20740
0.04239999999999977,-0.4088603933333334,Eu1Al9Co2,mp-21407
1.1743,-0.6924421621695402,Rb2In2Te4,mp-22255
1.7555999999999998,-2.604194817083333,Sr4In2Sb2O12,mp-22355
2.0787,-3.454096836279584,Ba7Mn1Fe6F34,mp-22484
0.13089999999999954,-1.7700888141785722,K2Ce2Si2S8,mp-22809
5.0783,-3.350722898080408,Sr10P6Cl2O24,mp-23121
4.8393,-2.2172159318024143,Rb1Cl1,mp-23295
0.9487,-0.35247770277777746,Hg24Sb20Br28,mp-23453
3.8123,-2.606172490137361,Mn12B28I4O52,mp-23566
3.5225000000000004,-1.589758540978922,Ag4H20S8O36,mp-24072
2.6172,-2.545510816560604,Rb1Bi1F6,mp-27421
1.7726,-0.9589897545878574,P2I2Cl12,mp-27824
3.5620000000000003,-2.334913953361073,Rb2Zr1Cl6,mp-27831
0.8912999999999998,-1.781699127054,Sc2C1Cl2,mp-28479
0.0226999999999995,-1.0123412778571423,Pr6Ru2I6,mp-28746
0.015200000000000102,-0.011249178749999091,Re6Ge14,mp-29141
7.3637000000000015,-2.2615188035775,K2H6F8,mp-29331
1.3131,-1.2631418694486365,Hf4Se16Cl24,mp-29420
2.752,-1.3818094079166667,Tl8Te8O20,mp-29690
2.4082,-1.3157900540421457,Rb32Sn8S32,mp-30230
0.1781000000000006,-1.51266859,La4I10,mp-30282
1.8334,-1.966304907528735,Rb1Cr3O8,mp-30547
3.5056000000000003,-2.502754731616668,K12Si4O14,mp-30990
5.0593,-0.29598372791333283,K4Al4H16,mp-31097
0.39070000000000027,-2.255826936336001,Mn28Si4O48,mp-3224
0.6438000000000001,-0.09541706607142864,Cd2Ge2P4,mp-3668
0.5800000000000001,-0.3062692057142861,Mg2P8,mp-384
4.0003,-3.1645133271995243,Sr10V6O24F2,mp-40674
1.3646999999999996,-2.5924916419318187,Sr4Sb4O14,mp-4103
3.2778,-2.088113754281609,Rb8C4O12,mp-4138
0.7595999999999998,-2.463697789437501,Nd8S12,mp-438
3.3702,-2.116684023281251,Ca4Te8O20,mp-5040
1.9437,-1.7270461550357143,K6Fe2O6,mp-504570
0.9556,-1.8017405387172731,Ni4Hg4O2F12,mp-504704
1.5941999999999998,-0.6276887850000001,Li2Ga2Te4,mp-5048
0.022699999999999942,-0.6442513474969209,Cs1Cr5Se8,mp-505149
5.9087,-2.803637376510417,Sr4S4O16,mp-5285
0.3055000000000003,-1.1737555784790652,Cs1Cr5S8,mp-540569
3.5770000000000004,-2.4402963921520002,Ca2Bi2Cl2O4,mp-553025
6.356,-3.199966975586667,Be4B2O6F2,mp-554023
1.6738999999999995,-1.9351795925781257,Sm6Cu2Si2S14,mp-554097
2.8281,-3.0274076032708326,K3Mn2F7,mp-554144
5.8838,-2.6919380761224847,Rb2Lu2S4O16,mp-554774
2.9519,-2.492085356707717,Cs1Sb1P2O8,mp-554822
3.5617,-2.4792271648634454,Mo4P12Pb8O44,mp-554832
3.2653,-2.529754354257247,Ag8B32O52,mp-554873
3.936500000000001,-2.9204526771153847,Ba4Al8Ge8O32,mp-556178
1.3945000000000003,-2.3278958752953574,Dy12S12N4,mp-556247
1.8191,-0.7724023768758338,Au4S4Cl28,mp-556587
3.7934,-3.3995927178869048,Tb6B2W2O18,mp-557110
0.8152999999999997,-0.7247477957812505,Cu12Ge2W2S16,mp-557225
2.4362000000000004,-1.5248506341188888,K4Mo4H16O30,mp-557442
1.7915,-1.5228966228571434,Cu2As2Pb2O8,mp-557871
2.954,-3.3171614225,Sr16Nb4Al4O32,mp-558114
7.4039,-3.92189337446,K2Ho2Be2F12,mp-558826
0.4828000000000001,-2.425375268478448,Na18V28O70,mp-560778
3.6727,-2.452772737388889,K24Li8Si8O32,mp-561474
1.8593,-1.5016574424827585,Cs8Pb4O8,mp-562263
2.4504,-1.2520773408423913,Co5Se4Br2O12,mp-562833
1.1851,-0.4972990073625275,Rb8Ti4P12Se50,mp-567491
2.0857,-1.6952877212215742,Pr18Si6Se12N18,mp-568883
0.8800000000000001,-0.5397330965401783,Ta16Se36I32,mp-569258
3.5506,-0.9146146162499996,Tl8Ga8Br32,mp-569348
0.4901,-0.3611460530476194,Mn6P24,mp-569522
0.6639999999999997,-1.2221404917187502,Dy20C8I36,mp-570607
1.9449,-1.100015410391375,Sb8Se8Cl56O8,mp-572726
0.8028,-0.349147426452381,K16In16Sb24,mp-579637
2.4999,-2.517378684276093,Cs12Fe16P20O80,mp-581532
2.4223,-0.5921369985555556,Cd15I30,mp-582042
0.5602999999999998,-1.5225928259132664,K4Eu4P4S16,mp-628735
3.7424,-2.0733792849675003,Sr4H4I4O4,mp-643385
4.0479,-2.7301280465000004,Na4Zn2Si4O12,mp-6675
2.6472999999999995,-2.807715848601191,Ti8Tl8P8O40,mp-6706
0.5769000000000002,-2.2205105705902795,Ba2La4Mn2S10,mp-6770
1.4528000000000003,-1.6017265606428577,Ba12Gd8P16S64,mp-684036
1.7563,-2.6282013237499995,Sr4Co2W2O12,mp-694931
2.9215,-2.832684162625002,Ca12Ga8Si4Sn8O48,mp-695070
5.1766000000000005,-3.0078016929638087,Mg3Si4H2O12,mp-696497
1.8083,-2.2759288131493047,Na2Mg2Fe2S6O24,mp-698654
5.635,-2.1885254732805133,K2B10H16O24,mp-706621
3.0287,-2.67326500404762,Li4In4Si4O16,mp-7205
5.9598,-3.1886898439601663,Rb1Be2B1O3F2,mp-7323
0.015499999999999403,-0.4312111240476189,Mg4Cu4P4,mp-7352
2.4223,-1.8203695775702171,Ba2V4H4Se8O28,mp-735536
3.728800000000001,-2.9734813032500003,K1Nd1O2,mp-754158
3.449,-3.5550302464285712,Ba2Hf1O4,mp-754363
2.174,-3.40809642721875,Tb2Se1O2,mp-755340
0.1995,-1.0309283475000006,Na5Ni9O18,mp-760267
1.0794,-0.40295978816666667,K4Ag2As2,mp-7642
0.7792000000000003,-1.896338327802632,Na2Sb10O26,mp-766341
2.5666,-2.223047936369732,Cs16Si4O16,mp-771255
1.0382000000000002,-2.8011532374369743,Nb3P6W1O24,mp-777849
2.2372,-3.030434644285714,La4Hg2O8,mp-779287
4.9436,-3.4183721427675,Ba1Sn1F6,mp-8290
0.9935999999999998,-0.8741366415754307,Rb2Pt1Se2,mp-8622
2.2546,-1.33975929625,Tm2I6,mp-865353
0.4171000000000005,-0.26674542125000045,Co8Sn12Te12,mp-866481
0.5118999999999998,-2.016699114453125,Pr6Mn2Al2S14,mp-867323
1.1074,-1.2049260647629318,Rb4Mn2S4,mp-8714
1.9492,-0.9974950991666668,K4Na4Te4,mp-8755
2.2767,-2.1442696739924574,Rb1Nd1S2,mp-9363