band_gap,formation_energy_per_atom,full_formula,task_id
0.12739999999999974,-0.7611212799999993,Sc1Sn1Au1,mp-2894
0.0,-0.6532440550000006,Y8Al4Ge12,mp-28997
3.2079,-1.274657471689091,Ge12Cl32,mp-29688
2.6778000000000004,-0.48159424742424245,Ag4W12Br28,mp-29718
0.9614000000000003,-0.6871727593333331,K8Sn4Te12,mp-29835
2.5778999999999996,-1.2285537053363096,Na6B2S6,mp-29976
0.0,-0.4968582637878789,Sn8B2Rh12,mp-30061
0.0,-0.13666086485714288,P4Pb2Au4,mp-30108
0.0,-0.7283651827777781,Er3In3Au3,mp-30375
0.0,-0.2328516891666664,Be8Cr4,mp-30438
0.0,-0.4010235783333336,Hf4Ga2,mp-30572
0.0,-0.2525472524999999,Li2Mg1Pb1,mp-30758
0.0,-0.5102536880000003,Sn6Pt4,mp-30846
0.0,-0.338429205,Sr2Tl4,mp-30877
0.0,-0.6628247025000009,Ho20Bi12,mp-31465
0.38549999999999995,-1.047120120357143,Sr24P16,mp-32635
0.0,-2.1467716423,Tl1W6O18,mp-33436
2.0983,-3.0989581728499997,K1Ta1O3,mp-3614
3.0544000000000002,-2.3747999996726192,Ba3Ge12O27,mp-3848
0.0,-0.7055499060000002,Eu1As2Ru2,mp-4050
0.0,-3.0050365678571427,Yb2P2O8,mp-4179
3.9572000000000003,-3.3414587016866664,K2Na1Ti1O1F5,mp-42190
0.0,-0.5098707619999991,Tb1Cu2Ge2,mp-4521
0.0,-0.629073615,Er1Mn2Si2,mp-4729
1.6888999999999998,-1.2665882022656259,Co4Se4O16,mp-504678
0.0,-0.7943340852232126,Hf24P8,mp-504812
1.0179,-0.9461393657457695,Bi8Se16Cl28,mp-505564
1.3752999999999997,-0.057362257982758534,Cs2Pt1C2,mp-505825
0.0,-0.5935229934479999,Nd4Ni4Sn4H8,mp-510582
4.283,-3.2277009024537033,Sr8B8O20,mp-5401
1.8081000000000005,-2.3769881163095237,Sr4In8O16,mp-540688
3.9552999999999994,-2.5369966694541564,Mn4P8Pb4O28,mp-541468
0.06219999999999981,-2.007892259531251,Eu4Dy4Cu4S12,mp-542765
2.9022000000000006,-1.5085794875000005,Tl4C2O6,mp-543045
1.9443000000000001,-2.323672600924167,Ba2Fe2Se2O1F2,mp-549058
3.1727999999999996,-3.8449949881726666,Na1Hf2V1F11,mp-554121
3.5717,-2.5511716603571433,Li2Sn4P6O24,mp-554917
1.3174000000000001,-2.979123855324957,Rb2Mn1F5,mp-555014
4.1445,-1.9149850284267238,Cs8C8O16,mp-555131
1.9426999999999999,-2.151016518571429,Li12Zn6Sn18O48,mp-555965
3.7062999999999997,-2.1104101953379995,K12Te12O24F12,mp-557231
1.8279,-1.998931819819981,Rb4Sb8O22,mp-558023
8.1387,-3.130897129746667,B8F24,mp-558149
0.0,-1.8010622773697922,Ce6Cu2Ge2S14,mp-558303
3.3478000000000003,-2.6779071012499998,Er8Ge8Bi8O40,mp-559109
3.1791,-1.9299869704999997,Na10Bi4As10O36,mp-560658
0.0,-0.6662632670000008,Ca1As2Ru2,mp-5610
4.2207,-3.7440718809033333,Na1Zr2Mn1F11,mp-561353
0.0,-0.8092250553125,Yb20Bi12,mp-567280
1.1192000000000002,-0.49645158697265623,Cd2Sb4Se6Br4,mp-567556
0.0,-0.5966255334722229,Er16In4Ir4,mp-567685
0.8891,-0.23955572085714322,Be24P16,mp-567841
0.0,-0.604067216333334,Tb4B16,mp-568225
0.0,-0.39522604124999905,Hf2Al6,mp-568718
3.4614000000000003,-2.0088602499393335,K12In4Cl24,mp-569132
1.0267999999999997,-2.2741674838814285,Ba6Zr12Be2Cl36,mp-569563
5.3388,-2.4774356721973794,Cs2Li1Lu1Cl6,mp-570379
3.605,-2.003666653960937,Sm8Se20O52,mp-573109
0.0,-0.4408566387499997,Ba2Cu2Sn4,mp-5792
0.0,-0.2029169183333336,Lu1Cu5,mp-580136
0.0,-0.1931837725,Ho1Cu5,mp-580364
0.6482999999999999,-0.29756057181818196,Tl44Te22,mp-582753
4.3068,-3.398894174166666,Ca4La1B3O10,mp-6076
0.0,-0.4312630195138887,Pr1Ni2B2C1,mp-6140
3.5559,-1.6145570861120007,As12H4O24,mp-626378
1.1490999999999998,-1.2689260131562499,Na1Cr1S2,mp-637292
4.1596,-3.1754464946325758,K24Y24B32O96,mp-642313
0.0,-0.5477161774480003,Li2H2Pt1,mp-644136
1.474,-0.491452359325284,Te4Mo6Se14Br20,mp-645663
0.0,-0.4878453899999992,Tb4Co4Sn4,mp-646450
0.0,-0.99029175989796,Gd3P4Pd7,mp-647029
0.0,-0.5157223503472217,Lu1Ni2B2C1,mp-6544
0.08360000000000012,-2.8759452197499997,Ba2Ho1Ru1O6,mp-6609
0.0,-0.6369889196428582,Nd4Sn16Rh8,mp-669722
3.7417000000000002,-1.6970322868199998,Al4Bi4Cl24,mp-672273
0.0,-0.7995631544642866,Co2Ni4S8,mp-674355
0.8193000000000001,-1.9624946461920019,Mn8Fe8O24,mp-674482
0.3305000000000007,-2.877369332019231,Ta8Pb6O25,mp-676937
1.2751000000000001,-0.5225641127663384,K8Re12C8Se20N8,mp-680168
3.3100000000000005,-1.5068264772115383,Ho4I12O36,mp-683980
3.2017000000000007,-3.0943269445000015,Ca4Gd8Zr4Ga16O48,mp-686296
0.5102999999999999,-2.706741254270833,Ba10Re6O32,mp-698206
4.7164,-3.3207479728131575,K16Mn16Be24F96,mp-699937
2.0705999999999998,-1.3023074999827586,Cs2Hg1O2,mp-7232
2.0012999999999996,-1.7211107824371428,K4Co8As8H4O32,mp-746371
1.0341999999999993,-2.599425538437501,La8S12,mp-7475
3.1323000000000003,-3.8276564206770827,Sc4Ti2O10,mp-753401
1.9556,-2.5192165627236514,Li2V2P2H2O10,mp-753560
0.0,-4.095995963313334,Ce2O2F2,mp-755074
1.0686999999999998,-1.619506289562809,Rb8Fe8O12,mp-755676
0.0,-2.1786685319318195,Eu4Pb4O14,mp-756670
0.0,-2.3550470161057695,Sr21Co14O43,mp-758139
5.1778,-2.532017284636123,K8P8H8O24F8,mp-758619
1.5335999999999999,-1.5541144620000003,Na12Zn2O8,mp-7664
3.6111999999999997,-3.3346305999999992,Ho8W4O24,mp-775211
0.0,-3.237447734910223,Ca18Mn2P14O56,mp-780609
0.0,-1.4775275625000006,Ru2O4,mp-825
2.8998999999999997,-1.555634990059524,Ba12Ga24S48,mp-849286
0.0,-0.3952102295833333,Ho2Zn1In1,mp-861600
0.0,-0.7542890380000002,Er4Mg2Ge4,mp-862697
0.0,-0.8122108031250006,Ca1Pm1Au2,mp-862882
0.0,-0.6345799943749997,Pm1Sb1Rh2,mp-862955
0.0,-0.17644290374999994,Li1Pm2Ru1,mp-863675
0.0,-0.35432210452380886,Ho4Ni13C4,mp-863728
0.0,-0.3815838275000001,Li1Mg2Rh1,mp-864601
0.0,-0.26190352499999925,Ta2Nb1Ru1,mp-864651
0.0,-0.530669841136363,Nd3Cu4Sn4,mp-864792
0.0,-0.74404,Mg1Zr1Ir2,mp-864921
0.0,-0.5754125274999993,Mn1Al1Ir2,mp-864950
0.0,-0.4323773699999993,Hf1Nb1Tc2,mp-865094
0.0,-0.22839725625000007,V1Co2Ge1,mp-865465
0.0,-0.45765479944444465,Yb4B16Os4,mp-865902
0.0,-0.30449913750000057,Li1Ho2Ru1,mp-865959
0.0,-0.0594996137499999,Ho1Mg3,mp-866172
0.0,-0.5732546633333335,Ti2Mn1Rh1,mp-866218
0.0,-0.2880666000000005,Be1V1Co2,mp-866288
0.0,-0.44171358437499997,Pm3Sn1,mp-867164
0.0,-0.46949842062500013,Sm1Mg1Hg2,mp-867181
0.0,-0.4219912200000002,Li3Pt1,mp-867227
0.0,-0.7214666337499995,Sc2Zn1Ir1,mp-867233
0.0,-0.5371240100000003,Ga2Ru1Rh1,mp-867292
0.0,-0.6178918025,Sc1Cd1Rh2,mp-867909
1.9672,-2.435740210778522,Rb2Hg1F4,mp-8962
0.0,-0.35123655812500054,Ho1Co1C2,mp-9241
0.0,-0.9044954353057132,Sr6Mn2N6,mp-9325
0.0,-1.7667307111900001,Gd1N1,mp-940
0.0,-0.37067097083333334,Sm2Zn4,mp-962
0.0,-0.10698947249999957,Tc1Pt3,mp-972326
0.0,-0.8937769599999998,Lu3Al3Pd3,mp-973629
0.0,-0.6530838244444447,Lu3Ga5Ni1,mp-973878
0.0,-0.3764383393749977,Ta2Re1Ru1,mp-977357
0.0,-0.47266559249999984,Li1Mg2Pd1,mp-977380
0.9593000000000003,-1.951254786964286,Yb4As2O1,mp-9799
0.0,-0.7644640099999996,Er4Ge10Rh6,mp-984743
0.0,-0.542704338285715,Tc8P12,mp-9895
0.0,-0.7395863535416671,Cu1Ag1O2,mp-996975
0.0,-0.8010356809601294,Cs1Se1Br3,mp-998415
2.4939999999999998,-3.4025414752675,Ca1Mo1F6,mvc-11084
0.0,-2.0403157292500005,Ca4Cu2Ir2O12,mvc-5634
0.0,-1.1726631200000002,Sc2Te2,mp-10026
0.0,-0.8300517683333334,Yb1Bi1Pt1,mp-1018106
4.531,-1.9034925697563974,Ba3P6N8O6,mp-1019524
4.5761,-3.309243187421429,K2Ca4Si8O21,mp-1019746
4.374099999999999,-2.776012933043583,Rb4Mg4B4O12,mp-1020633
0.0,-0.5228765149999995,Ca3Al2Ge2,mp-10670
0.0,-0.7466292469999999,Sr2Cd1Pt2,mp-1068157
0.0,-0.5674301883333328,Hf2Si4,mp-1069
0.0,-0.4621116395000001,La1Ge3Os1,mp-1069898
0.0,-0.8429096184999991,La1Si3Rh1,mp-1070124
0.0,-0.22906225694444396,Er1Cu4Ag1,mp-1077498
0.0,-0.9389668466666663,Sc3Ge3Pd3,mp-1078402
0.0,-0.9748413720000002,Ca4Ga2Pt4,mp-1078428
0.0,-0.636876,Eu2As6,mp-1078796
0.0,-1.007957254152,Ce4C4Cl2,mp-1078814
0.0,-0.9035983305555548,Lu3Sn3Rh3,mp-1079148
0.0,-0.36910542777777916,Zr6Ga2Fe1,mp-1080526
0.0,-0.8306632279999995,Pr2Ni4As4,mp-1087218
0.0,-0.3386868092307684,Y1Mn4Al8,mp-10896
1.7106,-1.3450373718229163,Sr2Fe4Se4O2,mp-1095252
0.0,-0.31805353472222225,Yb2In8Ni2,mp-1102692
0.0,-0.6546601724999999,Er8Au4,mp-1102972
0.0,-0.21711740384615405,Yb1Ga8Cu4,mp-1103929
0.0,-0.2249194953846158,Y1V6Sn6,mp-1104337
0.0,-0.6102067854428564,Ce4H10,mp-1104579
0.0,-1.8009123178571431,Ce4Br10,mp-1104603
0.0,-0.9824997399999997,Dy4Si4Pd8,mp-1105784
0.0,-0.8859313462499999,Sm3Sb4Pt7,mp-11185
0.0,-0.24739403937500004,La2Mg4Ni2,mp-11200
0.0,-1.3858126368750003,Cd1O1,mp-1132
0.0,-0.22718111483333336,Na1Hg2,mp-11466
0.0,-0.38235051431944417,Na1Mn1Cu3Se4,mp-1179864
0.0,-0.2978682787500002,Ho4W4C8,mp-1181041
2.0284,-2.125185760456111,B4O8F12,mp-1182442
0.0,-0.35337174125000015,Dy1Ho1Ru2,mp-1183786
0.0,-0.43015220624999984,Ce1Bi3,mp-1183850
0.0,-0.9109017868749998,La1Yb1Au2,mp-1185027
0.0,-0.31239079999999997,Li1Mg1Hg2,mp-1185363
0.0,-0.43480449583333325,Pr2Tl1In1,mp-1186697
0.0,-0.0011775787500010182,Ru6Rh2,mp-1186926
0.0,-1.637535541604167,Ti2Nb6S12,mp-1188929
0.0,-0.5494261150000002,Ba6Ge10,mp-1188954
0.0,-0.3714405368750002,Pr4Zn10Pb2,mp-1189596
0.0,-0.7064945502777777,Nd10Cu2Bi6,mp-1189755
2.0075000000000003,-2.5846493934374997,Ba4Fe2Ge4O14,mp-1190820
0.0,-0.5553008962878788,Gd6Re2B14,mp-1190894
0.0,-0.6552513462500004,Li8Pr8Sn8,mp-1191159
0.17240000000000055,-0.676105169027777,Ho4Cr4B16,mp-1191543
0.0,-0.3744957362499998,Gd16Mg4Rh4,mp-1191587
0.0,-1.0050557022727276,Zr14As8,mp-1191610
0.6848000000000001,-1.0096400166326533,Ba12Al4P12,mp-1192373
0.006199999999999983,-1.1665981493888549,Rb12Fe4S12,mp-1193685
5.775600000000001,-3.7888104781315377,Ca4Al2Pb2F18,mp-1193801
0.0,-0.821577964333334,Zr8Co8Si14,mp-1194045
0.0,-0.6294504753571429,Sm4Sn16Rh8,mp-1194122
0.0,-0.1225352452380949,Ce4Cu20Ag4,mp-1194241
3.725,-2.502924395581533,Cs2Na4Fe6P8Cl2O28,mp-1194719
0.0,-0.10283510217391298,Zr2Zn40Cu4,mp-1195710
3.3015999999999996,-2.144952904307464,K2Co1P4H8O16,mp-1195899
1.8655999999999997,-1.9450242545634921,Cr4B8Pb24O48,mp-1197022
2.7395,-3.1467039914114396,Cs2Ti4P6O20F8,mp-1197745
2.6801000000000004,-2.4105095433333332,Sr8V16Te8O64,mp-1198767
2.5913999999999997,-2.1815998529765634,Sr8V8Se12O52,mp-1199170
4.585299999999999,-2.696936830723959,Na4B20Pb4O36,mp-1199541
3.6954000000000002,-2.6041752219037355,Rb4Nd4Mo8O32,mp-1200745
0.0,-0.14638051782608655,Mg6Al36V4,mp-1201511
3.3567,-1.953340509473684,Ge6Sb8O24,mp-1201722
0.0,-0.8352279059226189,Nd5P12Ru19,mp-1202750
0.009400000000000297,-1.341159986135833,Ce16C4I24N4,mp-1204612
0.0,-0.31551512777777785,Lu3Mg3In3,mp-1205857
1.7729000000000001,-2.7890953661477393,Rb2Re1F6,mp-1205863
0.0,-0.8161392560000003,Ho4Cd2Pd4,mp-1206107
0.0,-2.4889904065277784,Ba1Pr1Fe1Cu1O5,mp-1206136
0.0,-0.4630466997499994,Dy2Re4Si2C2,mp-1206141
0.0,-0.4088738623809525,Y1In5Rh1,mp-1206242
0.0,-0.7804574090000003,La4Cd2Pd4,mp-1206250
0.0,-0.4684030831249994,Tb1Cr2Si2C1,mp-1206333
0.0,-0.6120782889999987,Dy2B6Mo2,mp-1206856
0.0,-0.5783682970000015,Gd2Ni2Sn1,mp-1206945
0.0,-0.6190143819999989,Lu1Mn2Si2,mp-1207112
0.0,-0.7542312860000002,La4Cd2Au4,mp-1207248
0.0,-0.3417943212578614,Y12Ti8Al86,mp-1207858
0.0,-0.6610627061666662,Tb10In20Pd10,mp-1208470
4.858700000000001,-3.80793805921875,Tb8Si4O20,mp-1208518
0.0,-0.2635349258333335,Nd3Mg3Ag3,mp-1209825
0.8044000000000002,-1.0078132017857147,Li4Ca44Sb36,mp-1211639
3.1250999999999998,-2.722868012238917,K2Rb1Sc1V2O8,mp-1211745
3.3345000000000002,-3.5643353551041677,Gd4Be4Si2O14,mp-1212449
0.0,-0.477362516333334,Gd3Ga9Os3,mp-1212456
0.4773999999999998,-4.0989376033925,Eu2Zr2F12,mp-1212698
0.0,-0.9707004616666666,Dy10Ge4Sb4,mp-1212911
0.0,-2.465580976350575,Cs2Eu2W4O16,mp-1213312
5.649,-2.6622583510316478,Cs8Ca8S12O48,mp-1213739
0.0,-0.5159765221428572,Ca6Ge8Au14,mp-1214042
0.0,-0.287479487142857,Yb1Al1Cu5,mp-1215553
0.0,-2.41051262803125,Yb1Sm4S5,mp-1215576
0.0,-0.3083536088888887,Ti1Cu1Ni1,mp-1216850
0.0,-1.379320984464287,Ti3Mn1Cu2S8,mp-1217139
0.0,-0.3119445116666674,Tb1Cu1Ni4,mp-1217589
0.0,-2.0740033662499995,Sr4Co1Ir3O12,mp-1218568
0.0,-0.8231035783333338,Sr2P7Rh12,mp-1218725
0.47819999999999974,-0.982301745693966,Rb1Mn1Cu1S2,mp-1219557
0.0,-0.4698341078160916,Rb1Ge4Pt4,mp-1219661
0.0,-0.45066652583333305,Pr1Al1Ni4,mp-1219687
0.0,-0.6976023608333334,Nd2Ga2Si2,mp-1220152
1.4318999999999997,-2.805807966634151,Na1Mg3V3Cr3Si6B3H3O31,mp-1221086
0.0,-0.09937007166666649,Mg2Zn2Co2,mp-1221921
0.0,-0.3338096322222223,Mg4B3Ir2,mp-1222183
0.0,-0.39459799999999984,Lu1Al7Fe5,mp-1222470
0.0,-0.559735901666667,Lu3Ga6Ni9,mp-1222813
1.1116000000000001,-2.1198925826902184,La6Mn1Si2S14,mp-1223191
0.0,-0.2299339180833335,La20Os12C13,mp-1223651
0.0,-1.5090317302824996,Hf2C1N1,mp-1223850
3.2306999999999997,-2.664973556163691,K8Ti2Sn6P8O40,mp-1224290
0.0,-0.6389173267187509,Fe1Cu6Ge1S8,mp-1225017
0.0,-0.678839112,Eu1Si2Pd1Au1,mp-1225121
0.0,-1.0768830035714285,Eu6Dy2Sb6,mp-1225434
0.0,-0.3584763691666666,Er1Ga2Cu3,mp-1225514
2.2504999999999997,-2.634762118576446,Cs1V1Zn1P6O18,mp-1225904
0.0,-0.8097544860416667,Co2Rh2S8,mp-1226106
0.0,-0.8991985375000011,Ce1Pd2Pt1,mp-1226474
0.0,-0.965969935999999,Ce1Si1Ge1Rh2,mp-1226517
0.0,-0.9170866889560438,Ca2Al1P3Pt7,mp-1227376
0.0,-0.43433245000000015,Ca2Ga7Au1,mp-1227436
0.028999999999999915,-0.7638493234920634,Ca3Ag3P3,mp-12277
0.0,-0.5291124766666666,Ba2Cd2Sn2,mp-1227971
1.8797000000000001,-3.0105175151315797,Ba4Sc1Re1W1O12,mp-1228167
0.0,-0.6646703914682546,Al3P3Pd12,mp-1228856
0.5217,-2.836068578700001,Na2La4Os2O12,mp-12337
1.2094,-1.790361226653684,Be4Co2N4F28,mp-1238119
0.0,-0.0755558349999994,Cu1Pt7,mp-12608
0.0,-0.6362409658333329,Nd2Sn4,mp-12701
0.0,-0.3602954722222225,Pr3Zn3Ni3,mp-12703
0.0,-1.3647068245233314,Ta3N3,mp-1279
0.0,0.0,Mo1,mp-129
0.0,-0.5953693700000002,Pr2Ni2Ge6,mp-13073
3.4122,-2.784734408152779,K4Ti2O6,mp-13133
0.0,-0.11430850374999979,Nd1Mg1,mp-1327
0.0,-0.18511571374999924,Nd4Cu4,mp-13392
0.0,-0.3372892038888888,Ce2Ag2Pb2,mp-13407
0.0,-0.37593703999999944,Tb2Al1Co2,mp-13432
0.0,-0.6820765254545452,Sc2Si14Ir6,mp-13620
0.0,-0.5287239795000002,Ba4Zn8Sb8,mp-14207
0.0,-3.321214882899632,Rb2Na1Ti1F6,mp-15626
0.0037000000000002586,-0.38410326590579674,Pr6Co58Si8B20,mp-16084
0.010299999999999976,-0.41622343155797165,Tb6Co58Si8B20,mp-16088
0.0,-0.5324743016666673,Zr4Fe6Si2,mp-16336
0.0,-0.2797930277272733,Al12Au32,mp-16480
0.0,-1.1066368783333331,Tb2Pt4,mp-1697
3.0331,-1.8131410349938437,Cs4Er4Si4S16,mp-16972
3.4092,-2.276487503406595,Fe4Ni2P4O16,mp-17631
1.503,-0.7404237628017243,Cs8Ga8Te16,mp-17688
0.0,-0.5363110999999999,Al39Ru12,mp-17880
0.0,-0.16734169824999867,Nd8C12,mp-1800
2.1197999999999997,-0.9400433073571429,K12Al4Te12,mp-18378
0.9990000000000001,-1.9369331087085706,Mn2Fe4O8,mp-18750
0.7724999999999995,-1.939309387038,Mn6Te2O12,mp-18795
0.24349999999999983,-2.747249883333332,Pr2Cr2O8,mp-18863
1.8963999999999999,-2.3194794375000005,Ba4V8Co8O32,mp-19504
0.0,-0.3118130270000002,Ce4Mg2Ni4,mp-19910
0.8328000000000007,-0.43318661093750066,La4P28,mp-200
0.0,-0.587124395,Dy2Sn4,mp-20021
0.0,-0.5166672491666668,Ti1Ga1Co2,mp-20145
0.0,-0.8506829570000007,La4Pd4Pb2,mp-20301
0.0,-0.35063017500000004,Li1Ga2Ru1,mp-20567
0.0,-0.42727938499999923,Ce2Cr2Ge6,mp-20650
0.0,-0.35693852833333334,Tm2Cu2Pb2,mp-20663
0.0026000000000001577,-0.10079498125000086,Fe3Ge1,mp-20711
0.0,-0.4059929572222221,Tm1In1Ni4,mp-20896
0.0,-0.36727361666666614,Dy1In1Ag2,mp-20898
0.0,-0.10967059499999862,Cr12C8,mp-20937
0.0,-0.6289324679166666,Ba2In4Pt2,mp-21032
0.0,-0.6678984222222218,Yb20Ge16,mp-21300
0.0,-0.27628762895833336,Nd3In1,mp-21483
0.0,-0.7170275725000003,Y4Si12Ni20,mp-21661
0.0,-1.1139150812847234,Ti1Se2,mp-2194
0.0,-0.25609749916666713,Li2In2,mp-22460
0.0,-0.47297745222222254,In2Pt1,mp-22682
3.9396,-2.0433142387217553,Rb8Cd2Cl12,mp-22930
2.1620999999999997,-1.2539411996425,Br2F6,mp-23297
3.554,-1.8101874735249655,Rb4Cd4Cl12,mp-23390
3.6614,-2.608076934672816,Cs4Sb4Cl4F12,mp-23576
0.0,-0.6481028449999999,Ca2Sn2,mp-2450
0.0,-0.3368680633333332,Y1Ag1,mp-2474
0.0,-1.5139704262500002,Nd1As1,mp-2602
1.8148000000000002,-2.031858178068182,V8Co8O28,mp-27156
3.0177999999999994,-1.7324960259226192,In8Te12O36,mp-28091
0.0,-0.48588692866071476,Sc5Re2C7,mp-28767
5.6196,-3.8625261706773077,Li6Zr8F38,mp-29040
0.0,-0.23243458958333285,Li1Ag2Sn1,mp-2927
1.0868000000000002,-0.425839808982759,Cs16Ga8Sb16,mp-29372
0.0,-0.5223085751719999,Zr2Ni2H6,mp-29658
0.0,-0.8698901610714289,Ho2Cu2P4,mp-30195
0.0,-0.18822371624999926,Ho3Co9,mp-30558
0.0,-0.5280555591666669,Ho2Ga8Ni2,mp-30645
0.0,-0.6908450591666669,La3Tl3Pd3,mp-30754
0.0,-0.1737910460000002,Ni6Te4,mp-31103
0.0,-0.8567030427232138,Ti24P8,mp-31214
0.0,-0.7353750699999999,Lu2Zr2Sb2,mp-31440
2.4002,-2.891431690108696,Ba3Nb1Fe3Si2O14,mp-31758
2.8889,-3.500725829312499,Nd2S1O2,mp-3211
3.3708,-3.137717239250001,Ba3Ta2Ni1O9,mp-32310
1.8679000000000001,-0.5076072603799999,Au4Cl4,mp-32780
0.0,-0.07422875111111082,Ag2Te8Au2,mp-3291
4.1716,-3.8339190762499995,Sr4Hf4O12,mp-3378
0.054400000000000226,-0.472777135,Hf2Cu4Te6,mp-3650
0.0,-0.5566074346666653,Tb1Co2B2,mp-3893
0.0,-2.1133166862500006,Ca2Ir2O6,mp-4243
7.598599999999999,-3.384006971870476,Li12Be6F24,mp-4622
0.0,-1.718079001796876,Ho1Se1,mp-464
0.0,-0.4441057212499997,Mn1Ge1Rh2,mp-4664
0.0,-0.7209243100000009,Ce1Si2Os2,mp-4767
0.0,-3.5023794708555944,Cs4Ti4F16,mp-504701
1.4025999999999998,-1.2452461139318183,Na12Mn2S8,mp-5055
0.0,-0.6715066983333328,Dy4Ni4Sn4,mp-510152
0.0,-1.0279769693055556,Ce10Pb6O2,mp-510369
0.5714000000000001,-1.551825284615,Mn1Cu1O2,mp-510589
0.0,-1.133962137115384,Ca56Mn4As44,mp-532462
0.4830999999999994,-3.0869380229761916,Eu4B8O16,mp-540879
1.7469,-1.0647195185829745,Cs4Bi4S8,mp-541378
0.0,-0.11958601210526347,Ni8Bi24I6,mp-541751
0.0,-1.1160237369348662,Cs2W1Br6,mp-541753
0.0,-0.8724126489473687,Lu10Si20Ir8,mp-542170
0.0,-0.6057701483333329,Yb4Mg4Ge4,mp-542172
4.556699999999999,-2.8283228391754376,Na12Ca4B20O40,mp-542719
5.2906,-2.4904049881473798,Cs2Na1Ho1Cl6,mp-542951
0.0,-0.4667594056896546,Ta6Fe16Si7,mp-542996
0.0,-0.11252159000000006,Al12Mo1,mp-550
1.3088000000000002,-2.4654859035324996,Y1Bi2Cl1O4,mp-552604
3.7453000000000003,-2.5264574555277783,Na2Zr4As6O24,mp-553912
1.712,-0.9103134685390639,K4Sn4As4S20,mp-554119
3.367,-2.4763193165833335,Nd4As8O18,mp-555063
3.7369000000000003,-3.0441677197233745,Tb5Se2Cl3O10,mp-555909
3.1166,-2.342398455261647,Rb2Nb2As2Cl2O10,mp-556645
2.7409000000000003,-1.201902053075278,Ag2As2S32F12,mp-556837
3.4168,-3.412251966799131,Na4Gd4Mg2Si8O24F4,mp-557538
3.4917,-2.90660425645,Na2La2Mg2W2O12,mp-558194
0.0,-0.8606667950000002,Y1Pd3,mp-559
0.8737999999999999,-1.2938873070687507,K12Cu4N20O60,mp-559099
4.4123,-3.278174838072916,Hf4B8O20,mp-559617
5.3098,-2.6620701419270834,Li4Pr4S8O32,mp-559719
1.1197,-0.746484421505953,K8Ag24Sn12S40,mp-559880
3.8285000000000005,-2.7787888711076185,Sr10As6Cl2O24,mp-559965
0.0,-3.0238867147777784,Sr18Yb2V14O56,mp-560124
2.8926999999999996,-2.0985688454774993,Sr4Co2Se4Cl4O12,mp-561998
4.803999999999999,-3.6871629373863644,Y2Si2O7,mp-5652
0.0,-0.5114457907499996,Ba7Al4Ge9,mp-567067
0.0,-1.842251843482143,Ce6Se8,mp-567370
0.0,-0.8856423920270262,Ce6Si22Pt46,mp-568452
0.0,-0.1459906921428567,Eu2Cu18Sn8,mp-568497
0.0,-0.5651555607738094,Dy2B4C1,mp-568541
0.32759999999999945,-0.7957750115,Ca8Cd4Sb8,mp-569267
0.0,-0.12987107126315808,K16Tl22,mp-569570
0.0,-0.6443281266666661,Er3Ag3Ge3,mp-570026
0.0,-0.6356596511111106,Tb2Al4Ni1Ge2,mp-570138
0.0,-0.764838056285715,Sc12Si22Ni36,mp-570147
0.0,-0.04716921777777748,Ga3Ag6,mp-578
0.0,-0.36233992473684246,Eu1Ni12B6,mp-580731
2.7756,-3.0150523113257566,Gd12Ge12O42,mp-581229
0.0,-0.9761869280357143,Hf4Ni2P2,mp-5918
4.2341999999999995,-3.492402886208333,La2Sc6B8O24,mp-6217
1.2294,-0.35537378891716287,K4Cu4P8Se20,mp-622199
0.0,-0.253927851666667,Zr4Co2,mp-628
4.681,-0.32786860430999987,H2Br2,mp-632229
1.0201000000000002,-0.9582107853399999,Re1H8N2Cl6,mp-632724
5.701300000000001,-2.627448446064644,Ca2P4H4O14,mp-643898
0.0,-0.48338567144799993,Li2H2Pd1,mp-644389
0.0,-0.345070438421052,Gd1Co12B6,mp-645286
2.5477999999999996,-0.1726499615104169,Li2B26C4,mp-655591
5.0827,-2.814977439782053,K8Li8B32O56,mp-6648
1.5032999999999999,-1.3330947963499997,Na3Gd1I6,mp-675237
3.8894,-2.7507038763873455,Cs8Sb24F128,mp-683925
0.0,-0.7562584912499997,La4Si4,mp-7083
0.0,-1.1874585666666668,Tb4Si4Pt4,mp-7124
2.1482000000000006,-0.9607900040848214,Sr4P4Se12,mp-7198
1.1726999999999999,-2.822547063705,Na9Ca1Fe10Si20O60,mp-720248
0.0,-0.2524166874999996,Ce1Zn3Cu2,mp-7247