band_gap,formation_energy_per_atom,full_formula,task_id
2.7134,-1.5108724254022992,Cs6Mn2Br10,mp-27332
6.0263,-2.802948126031746,Be4P8O24,mp-27588
4.5508,-2.035788232013588,K8S20O64,mp-27792
4.8258,-2.8944455249937504,Na8Sb4F20,mp-27936
2.8452,-0.8800704776899999,Sb2S16Cl6,mp-28064
4.7762,-2.6503850208829998,K4As8F28,mp-28085
3.2217,-2.252076499236112,Ba6Te8O22,mp-28102
1.3683999999999998,-0.7075661134077385,Tl6B2S6,mp-29337
1.4014,-0.2348173052430557,Pd1Se2Br6,mp-29496
0.732,-1.7653141373823082,Li2Nb12Cl38,mp-29985
4.3744999999999985,-0.8801115311814292,Si4C2N8,mp-30161
1.3273999999999997,-0.278113592465278,Ag4S2,mp-31053
4.2936,-3.915800276250001,Nd4Sc4O12,mp-31117
4.0941,-2.8609753964441667,K3Zn2F7,mp-3125
2.1562,-3.1820802197500004,Ba8Ta4Cr4O24,mp-31630
1.5106,-1.662592794921875,Li2Sm2Se4,mp-35388
0.4996999999999998,-0.6509316645833328,Cu4O2,mp-361
2.3309,-2.7400483581250006,Sc2Cu2O4,mp-3642
3.7676,-2.7803898946139998,Na4Zn4F12,mp-3795
1.0584999999999996,-0.3631213722544641,Tl12Sb4Se12,mp-4876
3.0547000000000004,-1.3867382110829745,Cs2Ga2S4,mp-5038
0.10160000000000036,-1.1685082143750003,Co1Cu1O2,mp-504711
2.8858,-3.912778674000001,Gd16O24,mp-504886
1.1354000000000002,-0.6724015830636603,Cs8Sn4Te14,mp-505014
2.9232,-3.110423300321111,K24Cr24F96,mp-5053
0.3684000000000003,-3.1999028459848486,Eu6B4O12,mp-505346
0.03639999999999954,-0.3470497114285718,Ca2Ni8Sn4,mp-510484
0.7010999999999998,-1.7446414505657326,Cs2Ce2Cu2S6,mp-510569
4.4892,-3.3469744995357145,Ca16P8O36,mp-5263
2.8163000000000005,-3.024791613694445,Ti8Tl4O18,mp-540598
0.9971,-2.2068500789375007,Ba4Zr4S12,mp-540771
4.8922,-2.9538307677261906,K2La2P8O24,mp-540962
2.1585,-1.0708202802020004,Sr8Li12Ta4N16,mp-541569
1.8304,-0.4308654382396856,Rb4Hg2B18Se18,mp-541819
1.2939999999999996,-1.464955078890599,Cs8Ti6S28,mp-542011
0.6769000000000003,-0.8722303805654766,Cr2P2S8,mp-542096
1.0857,-0.4944200735018377,Ta4Tl8Se22,mp-542140
0.4774000000000002,-2.732690700700001,Na2Pr4Ru2O12,mp-542512
5.6178,-2.205477047039976,Cs8P8H24O32F8,mp-542541
4.9085,-2.876127373521397,Cs8Al4P12O40,mp-542656
4.3838,-2.7006790950000004,Ba4C4O12,mp-5504
5.1816,-3.0354885475736366,Yb8Cl12O2,mp-554831
5.5237,-3.2179723114102567,Ba4Si8B8O32,mp-555387
3.6497,-2.7336022869639995,V4O4F12,mp-556026
4.1816,-3.2740294047959195,Ca1Zr4P6O24,mp-556440
1.0698000000000003,-0.7557815052314822,In32Ge8S32,mp-556528
3.0224,-3.4377173055377086,K32Ti16O16F64,mp-556623
2.3762,-2.3516652019791078,Cd8P4O16F4,mp-557910
3.6369,-3.1424952177500005,Sr4Ho2Sb2O12,mp-558039
3.0087,-1.509127615465186,Rb4Te2H24O20,mp-558396
4.4518,-2.8666909918668835,Sr4Zn4P8O28,mp-558616
1.9989,-3.025023431519608,Ba8Ti4Pt2O20,mp-558894
0.8571,-2.3616449635935712,P16Ir8Cl8F48,mp-559182
0.5509999999999999,-0.7392768239218523,Ag4Hg8N4O20,mp-560443
2.3711,-1.946567703933189,Ca6Fe4Se12O36,mp-560990
2.7864,-1.953200256312697,Rb8Cr8O28,mp-561093
3.3088,-1.0930391818269227,Ga2I6O18,mp-561104
4.9509,-2.9071964624613105,Na4Ca2P4O14,mp-561260
2.1624,-2.1500484223329748,Cs1Er1S2,mp-561751
0.7608000000000001,-3.0519776115909085,Ca6Sc2Co2O12,mp-561991
0.2483,-0.3757669729166666,Cr4Hg24As16Br28,mp-567329
1.6308000000000002,-0.1561950224999992,Cu6I6,mp-570136
2.4965,-0.8454596970833335,In2Br6,mp-570219
2.9189999999999996,-0.3147120347467123,Cs6Mg6H18,mp-571020
0.9566,-0.750121298116072,Cr4Cu4P8S24,mp-572465
0.002200000000000202,-0.5233359726053242,K4Ag8Se6,mp-573891
1.952,-1.2085073447812498,K6Nb4Ag6S16,mp-581115
3.4278000000000004,-3.007421304583333,Nd24Ge24O84,mp-581345
0.8099999999999996,-0.4364229106958127,Cs24Nb2In12As18,mp-582185
1.4602000000000002,-0.31572334604166663,Hg16I32,mp-583213
3.6268,-2.6286689115463147,K2Mn12P14O48,mp-5997
3.7465,-1.1730876891550004,H12N4O16,mp-626256
0.9063,-0.6827946955311113,Tl4Hg12As8Cl12,mp-628647
2.6212,-2.0834315992500003,Na4Zn2Ge2O8,mp-6402
5.6645,-3.2148177941025646,Ca4Si8B8O32,mp-6419
3.2622,-0.4751251624133985,Cs4H8Pt2,mp-643010
3.2203,-0.9116497354166668,Zn16Br32,mp-647579
2.0401,-1.587545560958333,K80In16O64,mp-667326
1.7106,-1.0663392029560002,Al4I12Cl24,mp-672352
0.2054999999999998,-1.2419816749999997,Y2Ge1I2,mp-676315
4.8301,-1.7838457438480948,K4P4H12N4O12,mp-696528
3.6021,-1.66431175028,La2H2Br4,mp-696944
2.1415,-0.44369108049714256,Na2H4Pt1,mp-697096
3.2973,-0.3581300068188,Ag4B44H24C4Br24,mp-703539
1.064500000000001,-0.6889417814285714,P8Pt4,mp-730
2.3502,-3.015413777708334,Li2Ce1O3,mp-754534
5.8658,-2.0436912710833752,Sr2H8S6O24,mp-757723
3.4247,-2.8706228447170363,K8Ti4Si12H8O40,mp-758597
1.9124,-1.656715667979737,Zn8Hg8H8S8O44,mp-761169
1.6913,-2.7423558022916072,Li4V2Fe2P4O16F4,mp-764571
4.0053,-2.192742395818682,Na6Ni2P2C2O14,mp-770968
2.7124,-2.083345949916667,Na4Cr2As2C2O14,mp-771169
3.5511,-2.8830376299999987,Tm2As2O8,mp-771977
3.7422,-3.0834980339772735,Dy8Ge8O28,mp-772793
1.7263000000000002,-3.160276669094584,La2Se2F2,mp-7738
3.127,-3.073698359821428,Li8Ti12Zn4O32,mp-774797
0.13069999999999998,-1.1035538415076465,Sm4H4I4Cl4O52,mp-779015
4.3796,-3.81346730525,La16Al8O36,mp-780409
2.8689999999999998,-2.943378693375001,La12Ga20O48,mp-780561
6.2112,-3.578880408989862,Cs2Rb1Y1F6,mp-7886
0.6798,-0.5220051952000005,K4As4Pd2,mp-8147
3.0582000000000003,-1.4458012956875006,K2Li2S2,mp-8430
1.0351,-2.7873227002499994,Yb1Ge1O3,mp-865758
5.4991,-2.7309519601902044,P1H1Pb2F10,mp-865973
1.6426000000000005,-2.4725603237500007,Ba4Nd8S16,mp-866306
0.010699999999999932,-0.6544885637499993,Eu2Sn1Hg1,mp-867477
1.9355,-2.0440739272290918,Mg2Au4F16,mp-8708
1.4849,-2.357160505794644,Na4P4Pd2O14,mp-8989
0.8196999999999997,-0.5686019918571432,Ca1Cd2P2,mp-9570
1.2979000000000005,-0.3909014198333338,Na2Be2As2,mp-9573
4.3556,-2.8797483308228573,K2Zn1F4,mp-9583
0.4710000000000001,-0.7847180116666669,Zr1Sn1Pd1,mp-961687
2.8718,-4.1325748721425,Gd1F3,mp-972965
1.0587,-2.5237866406875,La2Er6S12,mp-973441
7.7925,-3.3694475268823814,Nd2B4H2F20,mp-977417
2.7208,-2.041810956354167,Ho2S2I2,mp-1018731
4.6951,-3.1402824755092595,Sr4Mg4B8O20,mp-1020634
2.2017,-0.587265624296875,Nb1Tl3Se4,mp-1025396
1.7465,-1.3059929510416666,Mo4S8,mp-1027525
1.8303,-1.135812722448571,Ca28Si4N24,mp-1029474
1.6761,-0.9242922358667238,Cs16Nb16N32,mp-1030663
0.3689999999999998,-0.35598034975000026,Na4Bi2Au2,mp-1078709
2.3277000000000005,-2.153667267332975,Cs2Ho2S4,mp-1078726
0.05679999999999996,-0.8445560644444446,Ba3Cd2As4,mp-1080464
0.09280000000000044,-0.7196782983333337,Al4Ru2,mp-10910
0.2689999999999997,-0.3427124542968749,Cd1Cu2Ge1Se4,mp-10967
0.6704,-1.4371286577740296,Na6Te2H28Ru1O30,mp-1101723
0.15739999999999998,-1.7971600346875,Tb4As4S4,mp-1101828
0.24880000000000055,-2.067593111189999,Lu1N1,mp-1102
1.1892999999999998,-2.035891477864584,Ba2Gd2Cu2S6,mp-1102297
2.8512,-1.33825992384,Ga2Hg2Cl8,mp-1103091
0.6577999999999999,-1.7264883642266673,Sc8Os2Cl8,mp-1105775
0.4072999999999993,-0.6925956929999998,Er6Cu6Sb8,mp-1105955
0.02059999999999995,-2.814098613407777,Ba2Tb2Mn4O10,mp-1106241
0.021500000000000075,-0.6170068908333342,Eu4Cd4Pd4,mp-11090
1.2926,-2.1545295919285716,K4Tl2P2C2O14,mp-1178146
0.018400000000000197,-0.012406654586666451,K1Mg149,mp-1185536
0.5682,-0.0266807885999998,Mg149Hg1,mp-1185579
0.3340000000000005,-0.6338489945312512,Cu4Ni4Sb4S12,mp-1191203
0.022199999999999772,-0.5661058824242428,Tb6B14W2,mp-1191743
3.0265,-1.7309234933598587,Rb2In2Te6O16,mp-1192556
2.123,-1.4624461015900003,Mn4Sb6I6O10,mp-1192820
0.8545,-1.7725039682791135,Cs8Co4Cl16,mp-1193242
0.11290000000000022,-1.927449895982143,Eu4Er8Se16,mp-1193984
2.9311000000000003,-1.8241087628509856,Cs4Tb4Si4S16,mp-1194142
2.4346,-1.3609206953846162,Fe6Sb4Br8O8,mp-1194355
0.1961000000000004,-2.4078155729254838,Sr2Ti2Cu8P8O34,mp-1195138
5.5848,-2.816686108177303,Tb4P16H4O48,mp-1195189
3.0874,-2.0322612841875003,Na4Y4Te16O40,mp-1195227
2.7696,-1.8446449763198525,Na4Mo4Se4O22,mp-1195277
2.1158,-1.0414741240153065,K8Ge2P8S24,mp-1195305
0.4504999999999999,-0.7238976052222222,Ba20In16Sb24,mp-1195424
2.3134,-1.3313876716146869,Li12As4H64S16O32,mp-1196446
2.2186999999999992,-2.0126990233263897,La32In8Sb8S72,mp-1196663
0.07429999999999913,-0.23199986152173854,Ce2Al40V4,mp-1197724
2.4628,-2.8253914057870384,Ba12Y4Fe8O30,mp-1198058
1.1166999999999998,-2.400659339414063,La8Zr4S20,mp-1198687
1.0688,-0.8166955956977375,Cs4Cu4S24,mp-1199244
5.6963,-1.9399507183577611,B8H8S24O88,mp-1200187
1.7972,-2.365693700239292,Cs1V3B2P4H8O22,mp-1200471
6.8252,-4.05542141796,K18Er18F72,mp-1201270
2.3338,-2.0769906437159777,Cs8Re4Cl12O12,mp-1202505
2.2742,-1.9447410292708336,Tb16Ga4Sb4S36,mp-1202576
2.7916,-1.7003075780659995,Li4As12H8O36,mp-1203059
4.159000000000002,-2.9358681626911767,K64Sr16Si48O144,mp-1203391
4.274,-2.302457474719063,Li4Zn4S4O16F4,mp-1203440
1.5131,-1.1742498349856323,Cs2Tl2O2,mp-1205877
3.4569,-2.9887761568762565,Cs2Mn1F4,mp-1206528
1.5507999999999995,-1.5013315190712495,Tb1H1Se1,mp-1207080
2.5421,-2.52434658375,Ba2Cd1Mo1O6,mp-1207118
4.3538,-2.4854518388506244,Y4Se4Cl4O12,mp-1207618
3.5459000000000005,-1.4966250202884612,Tm4I12O36,mp-1208098
3.3428999999999998,-3.0095707757500008,Tm12Ga20O48,mp-1208125
1.3935,-1.5985056220957137,Ta6Tl4Cl18,mp-1208444
3.4208000000000003,-3.0650703692391312,Sr3Nb1Ga3Si2O14,mp-1208777
3.2845000000000004,-3.095138012875,Sr12Sc8Ge12O48,mp-1208829
3.0803000000000003,-2.6101982217618533,Rb12Nb12Ge12O60,mp-1210256
2.3237,-2.4422874820347285,Rb8Mo12P12O68,mp-1210317
4.942500000000001,-4.36274017748,Lu4O4F4,mp-1210775
1.1162,-2.60841337757483,K1Mo2P4O14,mp-1211413
3.6492,-2.542830998770834,K16Ti8Zn8O32,mp-1211941
4.7689,-3.60575049835,Hf4Tl4F20,mp-1212176
1.2133,-2.1756979416894304,Cs4Hf24C4Cl60,mp-1213477
3.4318000000000004,-2.6702734409339066,Cs2Dy2W4O16,mp-1213681
0.1694,-1.8881660844187256,Cs2Ca2Ta12Cl36,mp-1213700
2.8812,-2.2760552665603737,Co8Ag8P24O72,mp-1213893
3.2977,-3.159469480625,Ca12Lu8Ge12O48,mp-1214423
2.6795000000000004,-3.3213785215833336,Ba3Ca1Nb2O9,mp-1214569
0.04789999999999939,-2.807682318688947,Ba2La2Mn4O11,mp-1214651
0.3523000000000005,-1.175271950750001,K1Cr5S8,mp-12178
4.1902,-3.4928645121875013,Sr4Al4Si2O14,mp-1218879
6.167000000000002,-4.009389952237778,Na3La3F12,mp-1220826
3.5986,-3.1332719673690486,Na1Nd9Ge6O26,mp-1221045
2.631900000000001,-0.2736561447261901,Li2B24P2C2,mp-1222458
2.0551,-0.6098304657700007,K8Na16W8N24,mp-1223632
0.7314999999999996,-0.7331818829166669,Fe1Ag2Sn3S8,mp-1225099
2.0877,-2.6872786863663167,Dy4Mn2Ge8O24,mp-1225644
3.452,-1.6938495299591572,Cs6H2Se4O16,mp-1226195
3.4944,-2.7603790918219047,Ca10As6Cl2O24,mp-1227203
3.9175,-2.4922358651666667,Ca3Mg2Fe1C6O18,mp-1227854
0.9204999999999997,-0.928946402916667,Y2Ag2Te4,mp-12903
0.4988000000000001,-1.87814309615625,Pr2Lu2Se6,mp-13326
2.361,-1.4234679558928574,Ba8Zn8Sn8S32,mp-13593
1.0529000000000002,-0.9608272085912696,Sr32Ge8P32,mp-14213
3.8623,-3.3384315499218755,Ba18Lu6B18O54,mp-14386
4.0883,-3.1354530777639997,Na12Li12Cr8F48,mp-14458
3.2731000000000003,-3.6190143392968763,Ba3Er4O9,mp-14853
4.8267000000000015,-3.631006471250001,Nd16Si16O56,mp-15225
0.10960000000000036,-0.6545600020312499,Cu4Ge2S6,mp-15252
5.231,-2.8555758694107154,Tm4P20O56,mp-15382
2.5808,-1.4455250418749994,Tl6As2O8,mp-15573
1.9547000000000003,-2.1827596220312504,Li1Dy1S2,mp-15789
3.8415,-3.0466903103900003,K2Na4Li6Cr4Si24O60,mp-16282
1.9569,-1.06130029192888,Rb8S20,mp-16911
2.2323,-3.2011646113888883,Sm8Mo4O24,mp-17591
3.0066,-2.5475639786224504,Co4Si2P8O28,mp-17775
1.1999,-0.9739533926286776,Nb4Tl8S22,mp-17803
2.6133,-3.2866138828214275,Ta9V1O25,mp-17857
4.2828,-3.3720447338571424,Na4Y4Si4O16,mp-17891
4.7551000000000005,-3.393733798707143,Ba4Sb4F20,mp-18099
0.0005999999999999339,-0.15430763632638927,Ag16Ge2Se12,mp-18474
2.0224,-1.7681157364729545,Ni4Hg4S2F12,mp-18626
2.0241,-2.9326533993055555,Ba1Pr2Ni1O5,mp-18802
4.6567,-2.7557467849999995,Sr2W2O8,mp-19163
1.1994999999999996,-2.62481008195875,Nd4Mn8O20,mp-19393
2.608,-2.5795942759133825,Cs2Fe4P10O32,mp-19476
4.114299999999999,-3.294956917604168,La4Be4Ge2O14,mp-19926
0.7908999999999999,-0.3706817877698416,K6In2P4,mp-20256
1.9099,-2.4675718671424995,Pb4F12,mp-20652
0.012600000000000831,-0.6677802016666661,Eu2B4Ir4,mp-20976
0.009699999999999598,-0.21670029625,Co4Ge4,mp-21237
2.2239000000000004,-1.7708262367500005,Sb8O12,mp-2136
1.0787,-0.4681029525000002,Zn1Te1,mp-2176
2.897,-2.0071273908333342,Mo2Pb2O8,mp-22169
2.1289,-1.912856937777777,Bi8Mo4O24,mp-23064
2.6818,-0.06390931666666687,B2I6,mp-23189
2.7751,-2.876015801583333,Al8Bi4O18,mp-23426
2.4249,-2.61100333001736,Cr6B14Br2O26,mp-23581
3.1435,-0.6726787461549995,Li4H8N4,mp-23702
2.5466,-0.3094829602409651,Rb6Mg6H18,mp-23738
1.9201,-0.3834039168577779,Mg2Fe1H6,mp-23804
5.4425,-1.7577741626679166,Be2H16S2O16,mp-23996
5.287999999999999,-2.1835740760156583,Y8H24S24O96,mp-24656
2.7263,-2.5662960610433623,Cs1Bi1F6,mp-27422
4.3731,-2.227832289583333,Ba8Br16,mp-27456
5.3260000000000005,-2.873252871464286,Sr4P12O34,mp-27583
1.0693,-2.8065136232290917,K8Re4F32,mp-27595
0.9695999999999998,-0.9491672973214288,Tl8O6,mp-27684
5.1593,-3.0409804206597233,Ba8B32O56,mp-27692
5.4674,-0.951319744207778,H12Cl4O20,mp-27694
0.16399999999999998,-0.8500489397844829,Cs8Re8Br32,mp-27783
2.2311,-2.2307921231822734,Cs2Ti1Cl6,mp-27828
0.4367999999999999,-0.4155116888125001,Bi2Te2S1,mp-27910
1.6459,-0.7712833672988505,Rb4Te2I12,mp-28070
0.34529999999999994,-0.4309553880952386,P4Pd2,mp-28266
2.1903000000000006,-1.2292801881358335,In28Cl36,mp-28730
4.2571,-0.1169754540171423,Si12P4H36,mp-28842
0.05790000000000006,-1.650865248822579,Mn6Se6O20,mp-28915
0.9033,-0.4971721335468749,Na4Au4Se8,mp-29139
3.0667,-1.9499863677913527,Te16P8O52,mp-29215
0.3695000000000004,-1.026400438333333,Ba16Si12Br8,mp-30101
2.8817000000000004,-2.741351807109375,Sr6Ga8O18,mp-30158
2.2099,-0.49102137922017103,Na16B36Se36,mp-31229
1.9966,-2.7881739290833343,Nd16Au8O36,mp-3374
1.1108000000000002,-2.0519757451785714,Y4Cd2S8,mp-35785
6.8420000000000005,-3.536492910564,Na6Sc2F12,mp-4185
5.2327,-2.8549905482857154,Er4P20O56,mp-4871
1.8406,-3.2055390831944464,Ba4Ho8Co4O20,mp-505037
3.1216,-2.836760049607845,Gd4Ni4B20O40,mp-505232
2.0821,-1.6653867615114286,Na2Co6As6H4O24,mp-505247
2.8936,-1.6634029037500002,As8Pb8O20,mp-505465
0.33919999999999995,-0.36967002161458257,Co8As8Se8,mp-505511
2.3503,-0.5932152833856037,Rb4Li4H16N8,mp-510073
2.6457,-1.649866991222778,As6Pb10Cl2O18,mp-510724
0.0964999999999998,-1.83602139775641,Ba16Nb14S48,mp-531036
0.6281000000000003,-0.5301934412187492,Nb4Se4I12,mp-541817
3.8977,-2.2302504844944204,Na6P2S2O6,mp-542136
3.4428,-2.568540312677545,Rb4P8W4O32,mp-542871
1.1500000000000004,-2.4019089216575003,Pr1Bi2Cl1O4,mp-553082
5.5715,-2.670804835510417,K2Pr2S4O16,mp-554057
2.7832,-2.9987668725578245,Ti4P6Pb1O24,mp-554218
3.9909,-3.1308540817640003,K2Na1Cr1F6,mp-554252
0.2862,-3.3389686500172835,Hf6Cd6Ag2F40,mp-554342
4.3057,-2.2878550409030094,Sr3Mn15S18O72,mp-554634
4.09,-2.674974574174731,Na4Tl4B20O34,mp-554657
3.664400000000001,-2.276725504009653,Na8Ni10P12O44,mp-554790
1.8998000000000004,-1.80298468725,Cd4Ge4Bi8O24,mp-555027
3.3896,-2.3948227208653843,Na10Gd2Mo8O32,mp-556070
5.8466000000000005,-3.0749923153093355,Cs18Ga12F54,mp-556103
1.1123999999999998,-2.8893359517310904,Cs4Si16Cu4O38,mp-556177
2.3434,-2.646319454241984,Na24Fe16P16O64F24,mp-556871
1.8334,-1.0722580569350368,Rb2P2S6,mp-556953
3.9523,-3.109113896905378,Cs4Na2Cr2F12,mp-557047
2.4835000000000003,-2.1227975375,Sr8Cr16O56,mp-557093
2.8965,-3.2949063897345234,Cs4Ba4Cr12F48,mp-557433
2.8897,-2.9472769343518532,Sc6Te3O18,mp-557773
2.2925000000000004,-2.788565160050001,Ba10Li4W6O30,mp-557816
2.217,-2.5997227816833326,Na8Sr4V12O36,mp-557927
2.8939,-2.408404245258503,K24Co24P24O96,mp-557981
2.6315,-1.6486860265266667,K2Mo4Cl14O4,mp-558030
2.7976,-3.5515483158854164,Ba4Ti8O20,mp-558159
3.4138,-2.226957628432858,K8Ni16P16O60,mp-558324
4.6502,-2.6308500802524635,Rb2Ga4P10O32,mp-558390
3.7647999999999993,-2.7519158754298942,La4Ag4P16O48,mp-558465
0.9701000000000004,-1.0125083386979163,Li8Te4S12,mp-558731
2.5445999999999995,-2.1563043632142853,Ca8Bi16O32,mp-558751
2.1572,-1.6855156886111107,Li2Mo2I2O12,mp-558917
3.6787,-2.0823637191566675,Ga4Te4O12F4,mp-558984
2.6654,-2.44837437534091,Li2Nb6Bi8O28,mp-559052
3.3054,-2.8719229509375013,Ba2Zn4Si4O14,mp-560441
3.7705,-3.799637475714286,Sr4Er8O16,mp-560445
3.292,-2.4776864133125,Nd4Mo2Se4O20,mp-560590
4.5279,-2.6290235079213797,Rb2Ni1F4,mp-561317
2.7184,-1.9013465430836116,Tc4S4O24F4,mp-561392
0.14440000000000008,-0.7946274666666666,Ca3Ag3As3,mp-5615
2.4451,-1.2324923996788797,Cs4Ga4S12,mp-562726
3.1736,-1.7762549069409528,As12Pb20Cl4O48,mp-566301
1.3884,-0.3012676031157636,Cs12As44,mp-573812
2.2009,-2.0266815552675,Cd1Pt1F6,mp-5858
0.9852,-0.3205386476215277,Fe2Se2Br14,mp-607953
1.5030999999999994,-1.207974147783912,Cs4Nb8P4S40,mp-641699
7.31,-3.897511533571112,Sr2Li2Al2F12,mp-6591
0.7030000000000003,-0.3437956073958333,Sn1Se2,mp-665
4.4841000000000015,-3.142195822425001,K16Mg8Si40O96,mp-667292
0.8399000000000001,-0.4488941285714286,Cd3As1I3,mp-676464
1.5284,-1.1580312457433326,K1Rb5Zn4Sn5S17,mp-677017
0.8944999999999999,-1.4669963605765215,Sm16Cr2Te26Cl2,mp-680161
3.3694,-1.5291780848033336,Cd28Te28Cl32O68,mp-683967
4.5905,-2.7751107640438586,Na24Mg8B40O80,mp-683990
4.4925,-2.086621765533104,Zr2Cd4H24O12F16,mp-707940
5.8773,-1.9520627412698817,Li8H16S12O48,mp-720254
0.2762,-0.4763024359999998,K2Zn2As2,mp-7421
0.9172,-1.3574634419612073,Rb2Cu2O4,mp-7467
0.6380000000000003,-1.8264988855357145,Yb4Sb2O1,mp-753192
3.5587000000000004,-2.9462981770833334,Sm2I2O2,mp-754217
0.5792000000000002,-1.1944007515000004,Bi2Te1O2,mp-755419
4.0427,-1.6789847710255863,Cs4H12C2O12,mp-758948
3.1094000000000004,-2.7019896137500004,Tm6Sb10O24,mp-768450
1.4999999999999996,-2.429499806071429,Li4V6W2O16,mp-775204
0.3902000000000001,-0.4505340872499999,Na4Sb2Au2,mp-7774
0.6785999999999999,-2.461608348433811,Mn4P4O16,mp-777460
3.7673,-1.499137157920687,Cs4Zn2H24Se4O28,mp-779742
0.8959999999999999,-0.6272769955468753,Al2Cu2Se4,mp-8016
1.7719999999999998,-1.893854746050348,Nd6Si2Ag2S14,mp-864666
2.9917,-0.6285775328469395,Cd4P6S1N12,mp-8921
2.4122,-2.1768859356562507,Na1Lu1S2,mp-9035
5.9638,-3.5428359853476934,Li16Zr4F32,mp-9308
0.04070000000000002,0.0,Hg2,mp-975272
1.7285,-1.4642846202941178,Tl8Cr12O48,mp-9754
3.8549000000000007,-2.4386948851071426,K6La2As4O16,mp-975577
1.6936000000000004,-2.0711632669062503,Na1Sc1S2,mp-999460
2.2856,-2.1760719581562507,Na1Dy1S2,mp-999490
1.2662000000000002,-1.832432463298462,Mn3Zn2O8,mvc-15960
0.16849999999999987,-0.7324196629166663,Li3La1Bi2,mp-1018768
4.8405000000000005,-3.035265868457342,Ba6Zn2B10P2O28,mp-1019525
6.3843999999999985,-2.2524932506076394,Li4B4S8O32,mp-1020106
5.5758,-3.205434673628247,Y4Si2P8O30,mp-1020615
1.8995000000000009,-0.5844294391066663,Nb4Zn8N12,mp-1029422
0.2805,-0.6517844060199991,Ba6Ga2N6,mp-1029573
0.00199999999999978,-0.8186302834520001,Ca8Sn4N8,mp-1029915
1.9547000000000003,-0.95239807453125,Ta1Cu3S4,mp-10748
1.5578,-1.7771686795238086,P2Au2O8,mp-1095283
1.8863,-2.232087789212964,Ga4Fe8B4O20,mp-1097025
1.0463,-1.4575300860500005,V2Cl10,mp-1101909
0.014599999999999724,-0.7863583550000008,Zr4Ni4Ge4,mp-1102687
2.1843,-2.67594562695538,Cs2In1Ag1F6,mp-1113588
2.0537,-2.2024966388640457,Cs2Gd1Ag1Cl6,mp-1113592
1.7968,-1.0280678297611352,Rb2Se1,mp-11327
9.0594,-2.198873966702,C2F8,mp-1167
2.2499,-2.6658970729375016,Nb8Pb6O26,mp-1173546
0.5535999999999999,-2.2429089014688333,Rb2W6O18,mp-1179800
3.3396,-1.553068555800171,Rb8Te4H24Se4O40,mp-1179820
1.1014,-0.6376870431898145,K4Ag4Ge2Se8,mp-1188845
1.7788,-0.6848930412580825,Rb4Sb4Se8,mp-1189259
3.6563,-3.1484016052500015,Ca4Sc2Sb2O12,mp-1189528
0.14139999999999994,-0.3496210183333333,Er16In6Co2,mp-1190234
2.2953,-2.2553765359114597,La6Mg2Al2S14,mp-1190945
4.7782,-0.2764613241374712,Rb4Ga4H16,mp-1191353
2.0001,-0.9623347400080826,Rb4Ta2Cu2Se8,mp-11924
2.2122,-2.571915837857143,Pr4Mo4Br4O16,mp-1192793
3.5296000000000003,-2.1427913906181315,Te4P4O18,mp-1193939
0.3399000000000001,-0.4594888782226558,Sn12Ir8Se12,mp-1194504
2.2459,-1.941519402596,Mn4Pb8W4O24,mp-1194656
1.9321,-0.8367856777010004,Sr16P56Cl8,mp-1194705