band_gap,formation_energy_per_atom,full_formula,task_id
0.07299999999999995,-1.3720238810357148,Na4Ce4Ga16S32,mp-1204327
0.31460000000000043,-2.879808114184783,Ba8Nb64O112,mp-1205468
1.0645000000000002,-0.5012644699950741,Rb4P4Pt2,mp-1205641
1.5663999999999998,-2.3190673883796302,V4Fe8B4O20,mp-1207977
4.874199999999999,-3.7417516428750006,Tm12Al20O48,mp-1208102
2.8102,-1.938125540058333,Sm4In8Cl20,mp-1208961
1.0448000000000004,-1.3278784495738645,Sc4Tl2Cu6S10,mp-1209018
0.024,-2.7563339486094254,Rb4V4Cu4F24,mp-1209206
5.5916000000000015,-2.852855534434794,Rb2Sr1P4O12,mp-1209338
1.8198000000000003,-2.3575692082499997,Nb4Fe8O18,mp-1210013
0.955,-1.9719785638749991,Na12Cr4O16,mp-1210429
2.5707,-1.915487182430556,Li15I3O18,mp-1211142
1.4413000000000005,-2.1042341123312505,K2Ca2Er4Cu2S10,mp-1211692
3.9646,-2.7499994546190485,K4Na8Ga12Si12O48,mp-1211711
0.6484999999999999,-0.8687899280000002,K4Co2I8,mp-1211977
1.4127,-0.2600496343571425,K4Si12As12,mp-1211981
0.15580000000000016,-1.8417344388749999,K8Ce4Br20,mp-1212039
5.2016,-3.186655686294784,Cs4Tm4P8O28,mp-1213300
5.8095,-2.802452759246324,Dy8S12O48,mp-1213482
3.5853,-3.0155883861574075,Ba12Dy4Ga8O30,mp-1214605
1.3355,-2.078660702916668,Ba4Fe8Pb4O20,mp-1215009
1.9707,-2.1336773856250013,Y2Te1S2,mp-1216058
2.5102,-0.8107911569140622,Ta1Tl3Se2S2,mp-1217825
0.5196999999999999,-2.983711081607144,Sr10V6O26,mp-1218652
0.1802999999999999,-2.9320246492918187,Sm4Mn2Sb2O14,mp-1219206
3.1979,-3.359932571942758,Rb2Mg2Cr2F12,mp-1219571
1.625,-2.4289840702377776,Li2Zn2Rh2F12,mp-1222336
4.4954,-1.6876327815,Li3Er1Br6,mp-1222492
0.008300000000000196,-0.32702737375,Li2Mg1Ge1,mp-1222651
0.28689999999999993,-2.114275856628788,Mg4V12Cu8O42,mp-1223612
1.8304,-2.3380101196704555,K6Er14S24,mp-1224251
3.9269,-3.2403422054105087,Cs2Ti2Al2O8,mp-1225829
4.5360000000000005,-1.2538960802717245,Cs2C2N2O2,mp-1225916
1.2910000000000004,-0.7669065104017866,Co4P4S4,mp-1226003
1.5151,-1.8266558164429858,Cs6Y14Se24,mp-1226222
2.0791000000000004,-1.8771225563888894,Cr2Bi2Te2O12,mp-1226306
2.8516000000000004,-3.4670499022500016,Ba2Tb1Nb1O6,mp-1228310
2.397,-2.7191127732440483,Ba10As4S4O24,mp-1228464
0.8641000000000001,-1.4472345999479164,Ba8Mn4Te4Se8,mp-1228544
2.1221,-1.0424037896375,K4Zn2Se4,mp-1232317
0.8324999999999996,-1.8375502853125003,Nd2Zn2Sb2O2,mp-12516
1.3964999999999996,-0.7476952716666668,Li1Mg1As1,mp-12558
1.0560999999999998,-2.482424320687501,Sm2Er6S12,mp-13283
2.4167,-1.8281088253263544,Rb6Ga2O6,mp-13744
3.6444,-2.716682641764,K2Na1Tl1F6,mp-13798
6.864000000000001,-3.6254401199053783,Cs2Na1Er1F6,mp-13816
2.2704,-2.4089706408699616,Rb2Pd1F6,mp-14088
3.1504,-2.7281748858654553,Sn6F16,mp-1443
2.8078000000000003,-2.560536145843749,K8Si8Sb8O40,mp-14721
0.13699999999999998,-0.5997124627040813,Sm2Zn6P6,mp-15109
4.0962999999999985,-0.7519416332817223,Zn4P6S1N12,mp-15833
3.0917,-1.94338286735,K8Li12Fe4O16,mp-16955
0.8138000000000005,-1.7705897705357134,Sb4O10,mp-1705
2.983,-1.6401082499838369,Cs12Ta4S16,mp-17054
1.2718000000000005,-0.5433145541145828,Tl8Te4S12,mp-17172
0.4347000000000003,-1.0500309758333335,Ba20Sb16,mp-17399
6.7047,-3.7599851633687496,K8Sm4F20,mp-17434
4.2121,-3.269444087583334,Mg8Ta4O18,mp-17481
2.1461,-2.9377459979545453,Sr6Y2Rh2O12,mp-18498
1.5128,-2.5945912183720456,K8Mn4S4O16F12,mp-18838
2.9385,-2.8899995191396104,Ca2Cr2P4O14,mp-19134
2.4816000000000003,-2.1486049692857145,Cr4Cd2O8,mp-19262
3.9517,-2.308235224614225,Cs4Na2V2O8,mp-19447
3.1849000000000003,-3.550654564166668,Gd2Nb2O8,mp-19721
0.37570000000000014,-0.7623560870312507,In2Ag2S4,mp-19833
0.0019000000000000128,-0.938683869224139,Rb2Gd2Te8,mp-19914
0.14720000000000066,-1.87908322619,Y1N1,mp-2114
0.0008999999999996787,-0.5532721174999998,Ce20Sn16,mp-21693
0.06320000000000013,-0.5847881516666664,Y12Ni12Sn24,mp-21981
0.005799999999998917,-0.002559517249999743,In12Cu28,mp-21985
2.8682,-2.165312746704545,V8Pb8O28,mp-22005
0.9858,-0.4606532405950001,Li3N1,mp-2251
1.5862,-3.1321764423035723,Ce4P8O28,mp-22524
1.8986,-0.8333170796767242,Cs4I12,mp-22876
0.8211000000000002,-1.5378193741973796,Cs2Ni2Cl6,mp-22950
2.7745,-0.9873744572500008,Tl1I1O3,mp-22981
3.6163,-1.0627223533333332,Mg1I2,mp-23205
3.7256,-1.4030266225000003,Li8I8O24,mp-23384
1.2205999999999997,-0.3028304104761906,Ag2Hg1I4,mp-23485
3.1322,-1.9922791437933336,K2Br2F8,mp-23550
4.4254,-2.5875845822633337,K8Sb8Cl8F24,mp-23634
8.0444,-2.5931146127500004,Li1H1F2,mp-24199
1.8829,-0.9837788420312504,Ga4S4,mp-2507
1.8559999999999999,-1.9955960407205884,K4Sb8O22,mp-27140
2.6569,-1.8764960137500009,V8Ni8O28,mp-27157
0.7507,-0.8602028240689655,Rb2Au2Br6,mp-27300
0.4791000000000001,-0.917417427068966,Rb2Ni2Br6,mp-27409
1.4342,-1.0038003479779416,Au4Se8O22,mp-27441
3.4818,-1.8653625609722224,Li8Te8O20,mp-27811
1.2475999999999998,-0.4494346912499996,Rh2Br6,mp-27871
0.014499999999999956,-0.2133577449999997,Li1Ir1,mp-279
3.227,-3.080338481453704,K2Ti2O5,mp-28075
1.5991,-0.8170801999999995,Mn1Br2,mp-28306
2.0387,-1.817937701608,Nb2Al2Cl16,mp-28358
0.0459,-1.7371118340175,Cu2Pt2F12,mp-28488
2.8001000000000005,-2.42767125389706,Ta4Bi8O22,mp-29680
1.4267,-0.30361657812997306,Rb8P42I2,mp-31279
1.3384,-0.3025744177692305,K8P42I2,mp-31280
3.1591,-2.6264545211249994,Nd6Sb10O24,mp-3782
1.8445,-2.2792599315175,La8Au20F84,mp-3817
1.7525000000000004,-1.941152201339286,Sr2Nd4Se8,mp-39033
1.0893,-1.7939040650000009,Cd8Ge4O16,mp-3917
4.5287,-2.6347344898015868,Na10P6O20,mp-3928
2.1155,-1.0674017173214292,Cd1Ga2S4,mp-4452
1.3030000000000002,-1.6606245161309527,Tl6B2O6,mp-4584
6.9257,-2.4364773298437505,Be1S1O4,mp-5046
0.08900000000000041,-0.5996444280208332,Re4Te4S4,mp-5222
3.2499,-2.83275027075,Ca6Te2O12,mp-5279
4.9256,-1.6272827386882611,Sc4H52Cl8O28,mp-541015
1.9779,-3.3022150305830005,Sr8Rh4F28,mp-541114
1.4880000000000004,-2.4750300511041683,Y12S18,mp-541289
4.3948,-2.1368756157758617,Cs4Ba8Br20,mp-541722
1.3084000000000002,-2.2652160046875,Sm1Bi2I1O4,mp-552292
2.3479,-2.3357396245833333,Sr2Cu1Br1O2,mp-552537
2.3736999999999995,-1.602537509442858,Ba12Tb8P16S64,mp-554264
1.6542,-1.6481770259314286,Sr4Hg8Cl8O8,mp-554351
3.6133,-3.024622064383334,K2Ta2B4O12,mp-555150
2.8534,-2.110224844892857,K8Li8Cr8O32,mp-555206
3.7418999999999993,-2.5042425750282504,Dy6Se8O24F2,mp-555217
0.6263999999999998,-2.044524756734286,As4I4F48,mp-555340
1.7035,-1.808327208205819,Rb1Au1S2O8,mp-555741
2.8404,-3.570305614421428,Ca2Cr2F10,mp-556748
3.4899000000000004,-2.8329524627430547,K20In12Si28O84,mp-557237
2.0838000000000005,-3.052475713314,K1V1F3,mp-557257
4.1782,-2.6750402354270832,Na2La2S4O16,mp-557840
5.2387,-3.1144299077350004,Na4Y4C4O12F8,mp-558160
2.0229,-1.0997294632999999,I8Cl8O8F8,mp-558330
3.0702000000000003,-2.322413532713542,Na8Ti2As4O18,mp-559519
3.4711,-2.6518668334949718,Rb8Ca4V8O28,mp-559758
4.6496,-2.9434991036096934,Na10Ca4Al2P8O32,mp-559777
1.8878,-2.0855390883333333,Li2V6Te4O24,mp-559938
3.7385,-3.0907849189772736,Ho8Ge8O28,mp-560082
2.2816,-2.98928039194853,Ba17Y16Zn8Pt4O57,mp-560146
2.6655,-1.9130273636551731,K4Mo6As8O40,mp-560268
2.3627,-1.9679801384039044,Rb6Hg4S6Cl2O24,mp-560324
3.5358,-2.8067322784027784,K2Na2Ti2O6,mp-560767
5.1064,-2.8021956387994744,Cs8Ba2P12O36,mp-560944
2.7216,-2.5445241067812496,K12Ca4V20O60,mp-561144
2.9656,-2.6601086345297107,Rb4V4P4O20,mp-561349
7.9011999999999984,-4.09675794996,Li2Lu2F8,mp-561430
0.9779,-0.5859329554639608,Cs4Bi12Se20,mp-567928
0.9436999999999998,-0.5281962352974626,K6P10Ru2Se20,mp-568011
0.15050000000000008,-0.6511174216666665,Tm1Ni1Bi1,mp-568269
0.007299999999999862,-1.2173357287500002,Ba12Ge4I8,mp-568836
1.5905999999999998,-2.2148737639772915,Cs2La2Zr12Fe2Cl36,mp-569543
0.8756000000000004,-0.97375982096395,Cs2Zr12Mn2I28,mp-570192
2.2061,-1.6240752819127267,Ba8W2N8Cl4,mp-570453
2.1317000000000004,-0.8499452209520001,Li4Ca4Ga4N8,mp-570948
0.2884000000000002,-0.7628522651785716,Ca4Zn4Cu2P6,mp-571306
2.2699,-0.742151293482143,Al8Bi4Se16,mp-571623
2.0845,-2.7095094024262596,Cs8Ti4V12P12O72,mp-581138
2.0773,-1.3594204447,K2Hg1O2,mp-5860
6.0172,-2.311441642495333,Li4Zr12H72N16F76,mp-601344
0.7466,-2.9636155783591533,Cs6Cr2F14,mp-614724
4.4626,-2.790828592940408,K8P4O12F4,mp-6441
0.9016,-1.7263896571637547,Cs8Tl2Sb2Cl24,mp-650007
2.1187,-2.394571868850575,Cs2V6O16,mp-651814
3.0952,-1.3821828129296885,Pb4Se8O20,mp-662535
2.9436,-3.0095372942307685,Ba32Zr12Sb16O96,mp-667372
3.5071999999999988,-3.557129836125,Sr6La2Ta3Al5O24,mp-676456
4.1637,-4.0010966915789465,Tm8Zr6O24,mp-677391
4.7813,-2.81164953113936,Na27Ca3Al5P24O84,mp-677638
0.19890000000000008,-0.5351793451190474,Gd2P10,mp-680742
2.2722,-2.8377726196586512,Na12V8P8O32F12,mp-694937
4.9472,-2.5815405781165435,Na8Al6Si6B2H8O24,mp-694981
3.8925,-3.1475812705,Na2Tb2O4,mp-6964
5.1811,-2.6017406595967505,Cs4Si2P8H4O28,mp-697078
3.7985,-1.3903653666127276,K8Si4H16N8O8,mp-697910
5.1723,-2.348119473668,Na2Ca4Al8H16C8Cl2O40,mp-698491
1.8694,-1.374993849732143,Sc2P2S8,mp-6999
2.5304,-0.7418944680392477,P8H40S16N8O4,mp-707014
1.3238,-1.6130679265536911,Ag6P3H3O12,mp-707138
1.3088,-1.0807317076274074,Mg1H12I8O6,mp-707735
7.7298,-4.468397810267501,Sm4F12,mp-7384
3.5663,-3.7483569076893946,Sc2Ti2O7,mp-753802
2.7148,-3.5661638613157907,Y6Te1O12,mp-754359
3.0964,-2.5389131105535725,P4W2O14,mp-755995
5.3661,-2.8788309204642863,Ca4P12O34,mp-758337
0.5478000000000001,-2.393967571771713,K2Mn4P4H2O18,mp-758391
1.3411,-2.0066271497135424,Sr12Ni9O27,mp-759747
1.6619,-1.8326419043437496,K12Os6O30,mp-762088
4.1974,-3.4492783899166666,Sr8Ta4O18,mp-769271
0.10939999999999994,-2.1366239179014284,Li8Mn13Cr3O32,mp-775158
4.062099999999999,-3.7252201402326834,La18P6O42,mp-779590
1.1070000000000002,-0.3807748785714281,Al2Hg1Te4,mp-7910
3.3082,-2.72759353995538,Cs1Cd1F3,mp-8399
6.4413,-1.9503878096147205,Na8Mg8P24H64O80,mp-849748
3.8959,-3.1432973043055545,K2Na2Sm2Ta2O10,mp-861957
3.1016,-1.55153370884,Pb2Cl4,mp-862871
0.0052000000000003155,-0.41665659291666657,Er16Ga6Co2,mp-862995
0.7705000000000002,-1.0530313599399983,Mg2Mo2N4,mp-864954
2.5253,-1.215816442197917,K2Li2Se2,mp-8756
2.1587,-2.156016381082974,Cs1Tb1S2,mp-9085
4.5591,-2.722447075740741,Li8Ti2O8,mp-9172
0.5646,-0.8992889325500002,K3Au1O1,mp-9200
0.4113,-1.7457224714687505,Sr2Cu2Se4O12,mp-9640
3.3812999999999995,-2.00790500325,Li2As2O6,mp-9657
1.3537,-0.2789978468962069,Rb4Ga4H8,mp-974682
3.4013,-2.723110195113638,Al4Ge4O14,mp-9751
1.5933000000000002,-1.82149156953125,Tb1Tl1S2,mp-999119
4.4438,-2.4088258095914283,Te1F6,mvc-15700
2.2795,-2.5595479266375,Mn1Zn1F6,mvc-15848
2.2452,0.0,Cl4,mp-1008394
1.0135000000000003,-0.4857101033333334,V1I2,mp-1018138
1.5585999999999998,-0.3102437308566657,K2Ge4N6,mp-1029404
0.7711999999999994,-1.2650111552777776,Ba2Y2Ag2Te6,mp-10337
2.1736,-2.53301179095538,Cs2Tl2F6,mp-1078203
5.0496,-2.5708293979219703,Cs2Yb1Cl4,mp-1078265
1.9936,-1.7156534906330814,Rb1Er1Se2,mp-10784
1.2921999999999998,-0.9047461768571432,Ca4Cd2P4,mp-1078908
0.8916,-2.4754274379375003,Nd2Lu2S6,mp-1080801
0.2930000000000001,-0.1746241037499998,Cd1Cu2Si1Te4,mp-1087540
1.3847,-0.5845731436250001,Na2Ga2Te4,mp-1094098
0.06780000000000097,-1.1307986215476191,Hf4Co4P4,mp-1095427
2.6247,-2.5427522469907413,Al4Fe8B4O20,mp-1096865
4.5162,-2.7992756214898633,Cs2Rb1As1F6,mp-1111968
3.4927,-3.0780407526220457,Cs2Al1Ag1F6,mp-1113614
0.06229999999999958,-0.3520179824999996,Lu1Zn1,mp-11496
3.4952,-1.958406457416668,Na4Bi2As2C2O14,mp-1176418
0.3296999999999999,-3.60371253375,Eu4Ho2Ta2O12,mp-1181527
3.4296,-2.3894099064087193,B18Pb16O42F2,mp-1182634
4.454599999999999,-3.615802361445201,Li2Nd12B6O26F4,mp-1185531
4.7747,-1.954499593383921,Ti1H8N2F6,mp-1189965
3.0149,-1.776522758560077,Cs8Ag4Cl12,mp-1190886
3.901,-3.2008205409375012,Sr4Zn2Si4O14,mp-1191240
4.639100000000001,-1.9393451498409089,Te4H4O6F8,mp-1191341
2.7936,-3.441537254659092,Tb6Sb2O14,mp-1191378
1.2146999999999997,-1.9301010152864595,Gd6Cu2Si2S14,mp-1191406
0.0484,-0.6246844792424237,Er6B14W2,mp-1191731
4.780399999999998,-3.3442362012896667,Na5Ho4Si4O16F1,mp-1192403
4.7279,-3.337578598623,Na5Tb4Si4O16F1,mp-1192492
5.739800000000002,-4.195884525756428,La2Zr4F22,mp-1192580
1.5470000000000002,-2.4789523005357155,Ca4Ho8S16,mp-1194276
0.2567000000000004,-1.1235712397867514,Cs14Fe8S16,mp-1195066
3.3096,-3.779634829114583,Pr8Ti4O20,mp-1195324
2.1281000000000003,-0.7287554692500002,Sr8P28Br4,mp-1195664
2.6446000000000005,-2.9559477535974987,Ba4Mn8Si8O28,mp-1196057
1.3141000000000005,-1.4909979245238103,Gd8P8S32,mp-1196177
0.4976,-0.4774659677393104,Mn4Te16H72N24,mp-1196302
0.6688999999999998,-0.3189113670816231,Cs24In8P16,mp-1198384
0.6724999999999994,-2.3681797582422224,La24Co4Cl44,mp-1200333
2.8229,-1.4479315804795252,Rb4Si2S6,mp-12016
2.4028,-2.412745387985768,Rb8V8P8H8O48,mp-1201601
0.6303,-0.8416343864659649,Cu2Ag4N8O24,mp-1202008
2.4793,-2.6157435158087394,Fe12P18O54F18,mp-1202233
3.3955,-2.6545206048886505,Cs8Ca4V8O28,mp-1202328
2.9598000000000004,-2.2865875183767357,Y4Mo2Se6O24,mp-1204562
2.8748000000000005,-2.702341046546935,Rb4Ta12Te8O48,mp-1204836
2.011,-1.358118429079231,Gd8Si16C4N24,mp-1205044
0.042799999999999734,-1.2147777726470588,Tb6Os1I10,mp-1205323
1.5122,-1.5840973913304215,Cs2Pd1Cl6,mp-1206568
0.9803,-3.1402502567588884,Yb4Sn4F28,mp-1207670
2.3226,-2.2752539964071423,Tl8Mo12P12O68,mp-1208507
0.2391000000000001,-0.4661989184099621,Rb4Mn6Te8,mp-1209522
3.7688,-2.9267260857933333,Li2Cr2Cd2F12,mp-1211098
2.3542000000000005,-3.3714238545952377,K4Nd4Ti4O16,mp-1211538
4.638,-2.8242624287499987,Li24Sm4B12O36,mp-1211541
3.4064,-2.757293339381774,K2Rb1Er1V2O8,mp-1211720
3.7099,-1.7278428075624999,K4Ba8I20,mp-1211784
0.1629000000000005,-2.6410844505104167,K2Ce2S4O16,mp-1211829
4.9895,-2.525405473725,K8Ho4Cl20,mp-1212046
3.1598,-3.5558299451961117,Ho2Ti2Cl2O6,mp-1212080
3.1765,-3.5560013835294444,Er2Ti2Cl2O6,mp-1212930
1.0135999999999998,-2.1832168958238984,Cs4K4Zr24B4Cl60,mp-1213422
0.4057,-0.4018789035344825,Cs2Ag6Te4,mp-1213692
4.3411,-2.401774636309524,Cd2Ni2P8O24,mp-1213935
0.23850000000000016,-1.28103678375,Tb20Te36,mp-1217665
2.0541,-3.1764412160714284,Sr1La1Cr1O4,mp-1218189
0.03259999999999996,-3.123428072916667,Sr1Ce3V4O16,mp-1218593
0.4675000000000002,-1.743434134352808,Rb4Cr2Br2Cl6,mp-1219758
4.2416,-3.1088248738233637,Rb2Na2Mg6Zn4Si24O60,mp-1219802
1.7352,-2.6682694152119644,Rb8V12P16O68,mp-1220097
3.228,-2.3869011379654537,K1Al1Si3Ni3H2O12,mp-1223621
0.5046999999999997,-0.7915122851785716,In2Ag2Sn2S8,mp-1224048
0.2270000000000003,-0.43898359583333263,Ge4Te4Pt4,mp-1224373
3.037,-3.4275527546391955,Rb6Ti2F14,mp-12245
0.754,-0.3280726032761905,K12In2P6,mp-1224505
2.1167,-2.9888762355681835,Gd4Ga2Sb2O14,mp-1224682
1.2864,-2.046840779207221,Fe7Si3H8O18,mp-1225755
1.7180000000000002,-1.3923892004999998,Bi1Pb1I1O2,mp-1227389
2.3754,-2.790788574305555,Ba12La4Fe8O30,mp-1228690
1.1029,-0.5762612678645832,As4Rh4Se4,mp-1228724
2.2956,-1.3822490139285717,Ba8Cd8Sn8S32,mp-12306
1.2140000000000004,-1.1745558328566663,Mg4Nb2N6,mp-1246788
0.9043,-0.9006974566666668,Er2Ag2Te4,mp-12902
3.9569,-3.7250282070833336,Sm2Ta2O8,mp-12931
4.6025,-3.2073683972099998,Na8Li4Y4Si24O60,mp-14030
4.9384000000000015,-3.7059220256663328,Sr8In4F28,mp-14283
1.9818,-2.2771331437500004,Lu4Mg2S8,mp-14304
3.7033,-2.8573975135833343,Ca1Sn1B2O6,mp-14398
4.2674,-3.245818692604168,Pr4Be4Ge2O14,mp-14415
0.8725999999999998,-0.8112950952375002,Na4Pt2Se4,mp-14588
0.7774999999999999,-2.4559550559375,Pr8S12,mp-15179
2.0443000000000007,-1.9174774408333344,Ca2Te6O16,mp-15511
1.5098999999999996,-0.9023563832019996,Mg24N16,mp-1559
1.8247,-2.7613906323928563,Sr4V12P16O68,mp-15866
4.244,-3.246506109901306,Na2Ca18Mn2P14O56,mp-16553
2.9514,-2.4551625301886992,Cs4Ti2Ge6O18,mp-16805
3.5378000000000003,-1.992747195,Zn6Mo6O24,mp-16882
3.1171,-2.6207709105208337,Sr4Zn2Ge4O14,mp-17392
0.6762000000000001,-0.3202504782543101,Rb6Sn8Au2,mp-17401
1.9953000000000003,-3.237155754027779,Ba4Lu8Co4O20,mp-17736
1.2877999999999998,-1.5647933520312505,Sr12Ta4As12O4,mp-18199
0.0484,-3.2366271242500013,Ce4V4O12,mp-18769
1.4526000000000003,-2.458820274202857,Ca4Mn8O16,mp-18844
2.3785,-2.715959234063334,Na2V2O4F4,mp-18953
2.9661,-3.232445005,Er2V2O8,mp-18960
0.9367000000000004,-2.497620279345999,Ba2Mn1Te1O6,mp-18992
1.0832,-1.5869916806166666,K12Co4O14,mp-19141
1.2476000000000005,-2.033037280833335,W4O8,mp-19372
0.032999999999999474,-1.0074217933333334,Eu4Sb4Pt4,mp-20923
2.2279000000000004,-1.5138748045833337,Te8O16,mp-2125
1.0584000000000002,-0.7549007930607642,K8In12Ag4Se24,mp-21705
0.8348999999999998,-0.9433338315208346,In16S24,mp-22216
1.8896,-2.0047714990033327,Cr2Cl2O2,mp-22946
4.6763,-2.7977884315175,Bi4F12,mp-23237
3.9583,-2.3832288016004086,Na2Zn4P4H2O16,mp-24001
4.1126,-2.5470520321841565,Zr1P2H2O6,mp-24030
4.8712,-1.7014832246795166,K4Ni2H24S4O28,mp-24133
5.2797,-2.2444828104043357,Al4B4P8H20N4O36,mp-24757
7.459799999999999,-3.1251063493750006,Be2O2,mp-2542
1.4392,-1.3048493147566669,K4Au4Cl16,mp-27181
2.6253,-2.158586078192941,Hg6As4F24,mp-27292
0.8377,-1.3715794858653199,Rb6Au6Cl16,mp-27301
2.9175,-2.1240245187,K8Be4O8,mp-27915
1.4401,-1.7100631322912498,I2F14,mp-27988
4.589,-1.4779321578372415,Cs4H28O16,mp-28204
0.7207999999999997,-0.411587568394887,V4Se18,mp-28256
4.768000000000002,-0.38617158782399946,Ge2H6Cl2,mp-28369
1.9981,-1.0092332429939774,Sb4Se4Cl36,mp-28985
3.6888,-1.7010712747060004,Li8Ga8Cl24,mp-29344
0.9487,-0.3241382374687505,K16Ga16Sb32,mp-29383
1.8951,-0.06153026238095194,P2I4,mp-29443
3.551,-1.4065772396079999,Sn4Cl16,mp-29866
0.14760000000000018,-1.6960072460072733,Nb6Cl16,mp-29950
5.4902,-2.2567954039618177,Sr8Al16Cl64,mp-30024
3.4577,-2.064091551941334,Ti4Cl16,mp-30092
0.7264,-0.9370983232617194,Hg16Se8O40,mp-30123
0.04789999999999983,-3.2960630817045464,Pr12Mo4O28,mp-30215
2.4704,-1.7769447030357146,Sr4Sn2S8,mp-30294
1.5602,-1.8215082770312503,Dy1Tl1S2,mp-31166
2.1418,-1.4762423778571427,Y8P8S32,mp-31266
2.3783,-0.6591970443350004,Li24Ga8N16,mp-3887
1.7941000000000005,-0.9701546823437508,Tl8Ga8S16,mp-4016
2.3238,-3.576954508083334,Ca4Ti4O12,mp-4019
6.9731000000000005,-3.4582559916170887,Cs2Si1F6,mp-4047
5.906599999999999,-3.5319954861904765,Ho2P2O8,mp-4104
0.9832999999999998,-1.6897149493750003,Ga1Cu1O2,mp-4280
3.6241,-3.684038814250001,Sr4Zr4O12,mp-4387
2.6303,-2.1667221623981483,K8Ge32O68,mp-4698
0.4890000000000008,-1.899309074771249,Mn8Bi4O20,mp-504697
3.0099,-2.834873851114,Na4Fe4F12,mp-505066
1.4927,-0.9855710662913078,Cs4Ag2Sb2S8,mp-510710
3.8211,-1.992975408593751,Zn4S4O16,mp-5126
2.3713,-0.8852521377727275,K8Mo24Br56,mp-531064
0.6625000000000001,-0.38455834603515626,Tl32Sn8Se24,mp-531170
2.4178,-1.3448669158725917,Ca18B12N24,mp-531265
1.4382,-0.2685034455208335,Ge16Se32,mp-540625
3.5101,-2.5036667376250006,K2Ta2Ge6O18,mp-540631
4.0226,-3.4255622109166666,Ba6Sr2Ta4O18,mp-540950
1.8499000000000003,-2.4869912141575004,Er1Bi2Cl1O4,mp-549709
2.217,-1.7913501214318188,K8Fe4O10,mp-553960
2.0905,-2.0330773207933333,Li4Au4F16,mp-554442
3.4292,-2.255820441393828,Sr12Se12Cl8O32,mp-554805
2.4923,-3.0572052577787137,Ta9Pb12O20F29,mp-555105
4.2676,-2.9671469516764715,K8Zn4Si16O40,mp-555568
2.2153,-2.6673667831249994,Ba2Nb4Bi4O18,mp-555867
5.5242,-3.014020902281746,Ba4Ca4P16O48,mp-556122
3.848500000000001,-2.8999820558194447,Na4Sr4B4O12,mp-556695
4.1631,-2.6591556613771425,Mo4F24,mp-557259
1.8007,-1.8330754044531252,Tb6Cu2Ge2S14,mp-557517
1.6868999999999998,-3.3031794827675003,Ca1Cr1F6,mp-557519
1.4011000000000002,-0.9640552438882908,Rb8Ag4Sb4S16,mp-557540
2.185,-1.7587113356538462,K8Na4Te2O12,mp-557698
2.6644,-2.5445992750174997,K2Bi2F12,mp-557724
3.8832,-2.8205398806663635,Na4Cr2Ni2F14,mp-558356
2.0860000000000003,-1.6736121104791668,K32Li8I8O48,mp-558483
1.9236,-1.6440258913485233,Rb16Zr8S32,mp-558772
0.02070000000000005,-3.096393246363826,Ba15Cu12Cl3F51,mp-559141
1.6569999999999998,-2.6281962852675,Cr1Cd1F6,mp-559161
2.5291,-3.0785724737883187,Rb8Cr20F68,mp-559386
5.1511,-1.2453240656729996,H40C8N8O24,mp-560121
1.5193,-1.2289762291303572,K24Nb16S100,mp-560348
0.05010000000000003,-2.9238354478604514,K3Na3Nb8P5O35,mp-560541
2.3307,-1.056954448640395,Na6P4Pb3S16,mp-560831
3.3930000000000002,-1.667522758605,As12Pb8Cl4O24,mp-561268