band_gap,formation_energy_per_atom,full_formula,task_id
3.899,-2.774140957875,K8Ta8Ge8O40,mp-14377
0.0,-0.8260086196874994,La2Tm2Ge8Ir4,mp-16965
5.870699999999999,-2.6879459990520833,K4Er4S8O32,mp-18555
1.0707,-2.92947867347,Er4Mn4O14,mp-19256
0.0,-0.08201507083333315,Ba4Mg8,mp-1935
1.2232000000000003,-2.3870772049999998,Ba2Pb1O4,mp-20098
0.0,-0.7388502255555558,Dy3In3Au3,mp-22177
0.0,-0.2844818158333335,Be8Fe4,mp-2225
0.0,-0.8102247181818185,Ca18Zn8Sb18,mp-21594
0.0,-0.1759668000000012,V6Ga2,mp-22568
0.0,-0.1611765416666676,Hf2Mo4,mp-2363
1.3498999999999999,-2.488607747142857,Li4Co4P16O48,mp-26997
2.4813,-1.3091042343920463,Na16Ga8S20,mp-28773
0.0,-0.6526032692307688,Ho8Ge18Ir26,mp-30171
0.0,-0.5274514962499999,Li2Sn1Au1,mp-30405
0.0,-0.3435279237499991,Ir6W2,mp-30745
0.0,-0.6040469096666683,Ti4Pd6,mp-30840
3.229,-2.55460548449369,Ag1P1F6,mp-34418
0.0,-0.7453359978333338,Sm1B1Rh3,mp-4982
0.0,-0.31157051041666683,Pr16Ga6Co2,mp-504742
1.3371000000000004,-2.3517011906249996,Y1Bi2Br1O4,mp-553243
4.262499999999999,-2.7533732150000008,Ba10Si2Br12O8,mp-553884
3.5717000000000003,-3.351967737131538,Ba4Na4Cr8F36,mp-556890
3.0383999999999998,-2.2254511961875005,Lu4Te10O26,mp-557829
3.5972999999999997,-1.4934687839423075,Sm4I12O36,mp-558007
2.0351,-0.9557837966145835,Ta4Tl8Ag4S16,mp-558241
2.9139000000000004,-2.391789320129889,Na3Gd3H6S6O27,mp-559407
0.0,-0.37339824479166683,Sm1In1Ag2,mp-568719
0.0,-1.0471646450000014,Zr6Al6Pt6,mp-567927
0.0,-0.38387873999999983,Dy2Zn4,mp-570093
3.7628999999999997,-2.489107591243194,Cs12Nd4Mo12O48,mp-573369
0.23399999999999999,-0.4972922266666669,Ge8Te8Rh8,mp-607818
0.0,-0.2502943779411762,Li26Si8,mp-672287
0.0,0.0,Ti3,mp-72
4.6537999999999995,-1.8252653953858171,Cs8Mg4H32C8O40,mp-733936
0.0,-0.7016128474999993,Sm2Rh4,mp-840
0.0,-0.9436951100000002,Ba1Sb1Pt1,mp-8606
0.0,-0.32984963791666644,Ho1Ag1Hg2,mp-864775
0.0,-0.7729830562500002,Lu1Cd1Pd2,mp-866207
0.0,-3.0181327871590926,Nd6Ir2O14,mp-9559
2.233,-1.9441066778571436,Zn2Mo4O8,mvc-5694
2.2919000000000005,-2.17830362315625,Na1Y1S2,mp-10226
0.0,-0.5372614911904766,In1Si1Pt5,mp-1025370
0.0,-0.5252510220000005,Sr1Co2Si2,mp-1069057
0.0,-0.46990141100000005,Pr1Al3Cu1,mp-1069825
0.0,-0.3404652337499998,Ti6Pd2,mp-1079796
0.0,-0.442705419166667,Er2B4C4,mp-10856
0.0,-0.6215940600000004,Zr3Ge3Os3,mp-1091395
0.0,-0.41462035249999946,Sn8Rh4,mp-1103044
6.773300000000001,-3.620639137814,K2Li1Sc1F6,mp-1111110
0.0,-1.3732996174375003,Nb6Ni2S12,mp-1173526
0.0,-0.5934187512499993,Li1Zn1Pt2,mp-1185418
0.0,-0.5679801694444441,Gd4Re4B16,mp-1191130
0.0,-0.3194043827499996,Yb6Co8Sn26,mp-1198658
0.21209999999999996,-1.0344025292651895,Cs40Tl24Si4O16,mp-1199833
0.0,-0.4702518162499996,Ti12Co12Ge24,mp-1201705
0.0,-0.6017375885714286,Tb22In12Si8,mp-1204608
0.0,-0.49022405555555476,Hf6Co1Sb2,mp-1206239
0.0,-0.4590809472916675,Er1Cr2Si2C1,mp-1206309
0.0,-0.7821317345454543,Ce3Si4Ni4,mp-1206722
0.0,-0.42588254833333306,Yb3Ni19B10,mp-1207614
3.7882000000000002,-1.3701109790000003,Zr8Br32,mp-1207486
0.0,-0.9117173162499999,Tb4Ge4Pd8,mp-1208316
7.4902999999999995,-3.91342752305387,Rb2Dy2Be2F12,mp-1209211
0.19610000000000039,-1.2252932841666666,Pr4Te4As4,mp-1209288
0.0,-1.382044105,Pr12Rh4Br12,mp-1209787
0.0,-1.4173088614285716,Pr12Ir4Br12,mp-1209858
0.0,-0.7082422931250001,Er6Ga4Ge6,mp-1213152
0.025100000000000122,-0.5533699784374999,Dy20Co4Bi8,mp-1213372
2.4118,-2.125415424866072,Tb18Al10S42,mp-1217749
0.0,-0.19553174166666665,Mn3Co1As2,mp-1221723
0.0,-0.287158184642857,La2Mg3Ag9,mp-1223267
0.0,-0.9037148183333331,Gd2Si2Pd2,mp-1224641
2.4973,-1.3955314138663795,Cs1Li1Zn1S2,mp-1225887
0.0,-0.1877609098529413,Ca1Ce1Fe8Sb24,mp-1228062
1.9335,-3.2991238465833335,Ba3Lu2Mo1O9,mp-1228133
0.0,-0.5394278512499993,Ca2Ni2Ge4,mp-13512
0.0,-0.12942302500000036,Ga1Fe3,mp-19870
0.0,-2.9500135915000003,Ce2Sb1O2,mp-20356
0.0,-0.5061234749999999,Eu2Pb2,mp-20394
0.0,-0.5933971650420171,Tb1Fe4P12,mp-21041
0.0,-0.7266756522222223,Ca12Ge12Au12,mp-21710
0.0,-0.042107470833333153,In16Ag36,mp-21975
2.3398000000000003,-2.6461623610175002,Sr4Mn2Ge4O14,mp-22458
1.9303000000000001,-1.6270133210837507,S8I8O24F8,mp-23598
1.772,-0.6000442569582144,Hg6Se4Cl4,mp-27851
0.0,-0.4614163998717953,Sn5B2Rh6,mp-30060
0.0,-0.46351748805555576,Ce6Ga24Os6,mp-30267
0.0,-1.1125681155769227,La10Al8Br8,mp-31252
0.0,-0.635547203636363,Tb3Cu4Ge4,mp-3852
4.0558000000000005,-2.981293491057084,Na8Al6Si6H2O26,mp-39140
3.7846,-2.1569094305,Li8Sn1O6,mp-4527
0.0,-0.5149418512121204,Y4Al23Ni6,mp-4847
0.0,-2.3534070019396567,La4Os6O19,mp-541612
0.0045999999999999375,-1.21811344252,Mo8N4Cl28,mp-542135
0.0,-1.4805745678409097,Bi4Rh4O14,mp-555225
2.731,-2.2168547350681824,Na4Al4As8O28,mp-560921
0.0,-1.0100637848571423,Y1Ni2P2,mp-568940
1.1943000000000001,-1.3132163723046872,Nd6Cu2Ge2Se14,mp-568954
0.0,-0.16614641541666705,Pr16Mg4Ru4,mp-605873
0.0,-2.7912313977500007,Sr4Tb2Ir2O12,mp-6362
0.0,-0.690131702777778,Si3Pd6,mp-697068
1.6800999999999995,-1.3428582226229255,Rb4Ti2Cu4S8,mp-7129
3.6155,-2.2774642414629636,K2Mg2In2Mo6O24,mp-698655
1.681,-1.4388618423651063,K4Na2H18Pd1I2O20,mp-757218
3.9065000000000003,-2.5571240858928572,Li4P16W4O48,mp-757973
2.7486999999999995,-2.5435289003571433,Li2P6W4O24,mp-758098
3.5113999999999996,-2.691073811482667,Ca4Ga4Si2H4O16,mp-760729
3.9092,-2.3692871471093753,Ho4Se6O18,mp-769014
0.0,-0.6603168748571434,Zr1Cu2P2,mp-8219
0.0,-0.38960976833333394,Ti1Co1,mp-823
0.0,-0.43571181499999945,Sc2Ga1Tc1,mp-862324
0.0,-0.333283716875,Pm1Mg1Cd2,mp-862939
0.0,-0.3909213720833331,Er2Cd1In1,mp-862981
0.0,-0.11153586749999977,Pm2Cu1Os1,mp-863668
0.0,-0.5331496237499995,Dy2Ga6,mp-865103
0.40279999999999916,-0.687054102916667,Ti1Fe2Si1,mp-866141
1.4161000000000006,-1.8694338619444446,Cd1Sb2O6,mp-8922
0.0,-0.4278377145833332,Ca2Cd1In1,mp-977453
0.0,-0.4309372212500002,Sm2Tl1Hg1,mp-978807
0.0,-0.9791607654999993,Y4Si10Rh6,mp-9882
0.0,-0.6441680376302079,Ta1In1Se2,mp-999136
0.0,-0.6878589462499995,Nd2Rh2,mp-999335
0.0,-0.6945207066666672,V10Si2B4,mp-10126
0.0,-0.4771590009999997,Ba1Si3Pd1,mp-1070137
0.0,-0.3898958356666668,Y4In2Cu4,mp-1079508
0.0,-0.7044530374999995,Ce2Sb4Au2,mp-1079698
0.0,-0.371737017500001,Ga3Ni5,mp-11398
0.0,-0.8646518299999997,Tb1Rh1,mp-11561
0.0,-0.7119159249999996,Ca4Ga4Au4,mp-11811
0.24960000000000004,-0.02217052596666652,Mg149Sc1,mp-1185631
0.5617999999999999,-1.592607005294118,Y6Ni1Br10,mp-1188648
2.0002999999999997,-2.43341627579,Nd8H8O8,mp-1190994
2.4558999999999997,-2.12919209096,Hg2Te4O4F20,mp-1192364
2.2706,-0.9689337870574205,Cs12Sb4Se12,mp-1192816
0.0,-0.47510074142857206,Tm4Ga18Co6,mp-1194327
1.0442,-1.089236503488372,Ca42Zn8As36,mp-1194550
0.0,-0.7365500095454542,Sr8Al20Pd16,mp-1195613
2.5129,-2.314314650865385,Pr4V8I4O36,mp-1198275
2.3236999999999997,-0.6036454371441515,Cs8B18Se18,mp-1198415
0.9074999999999998,-0.19980673904761895,Si1P1Au1,mp-1207095
0.0,-1.0072719003571429,La1P2Pd2,mp-1207202
0.0,-0.5528064668421055,Pr6Al24Os8,mp-1209374
3.6853999999999996,-2.650273354791667,Li2Nd2W4O16,mp-1211137
0.0,-0.8952846658333348,Gd4Al4Rh4,mp-1212705
0.0,-0.41081086708333303,Dy7Co6Sn23,mp-1213064
0.0,-0.3959658188888887,Er7Co6Sn23,mp-1213283
0.0,-2.108420927,Sr4Zn1Ir3O12,mp-1218538
0.0,-0.24940156684615386,Nd14Ag51,mp-1220721
2.6053000000000006,-3.956303136010921,La12S6O4F16,mp-1223425
0.0,-0.3899713815773812,Cr2Ag2Sn2Se8,mp-1226303
0.0,-2.5944433142500003,Ba6Y2Ir2Ru2O18,mp-1228020
0.0,-1.1883979937499998,Nd1Sb1,mp-1586
0.0,-0.48109330410256435,Li3Si18Ni18,mp-15950
0.0,-0.44982145500000037,Ca2Zn2Si2,mp-16266
3.4114999999999998,-2.65316801972898,Li4Mn4P4O16,mp-18997
0.0,-0.3499664395833335,Tm2Co2C2,mp-19754
0.0,-0.7663327895798321,Mg4P6Rh7,mp-20241
0.0,-0.24768876083333424,Zr3In1,mp-20695
0.0,-0.6996171550000003,Eu2Ge2,mp-20712
0.0,-0.7999639271428569,Sm8Bi6,mp-23283
3.788,-2.644991140053035,Li2Mn4P6O20,mp-26977
1.9002,-0.46845010933333303,Li8H2N2,mp-30228
0.0,-0.3524593600000001,Tb1Tl1,mp-30878
0.0,-3.1771762535227293,La6Ru2O14,mp-3222
0.0,-0.23731098045454502,Ca2Al18Ni2,mp-3479
0.0,-0.6000715127777786,Zr10Al2Sn6,mp-510321
4.0714,-2.933628377267479,Rb8In12F44,mp-554576
4.0408,-2.602246353234694,Na12Ga4P8O32,mp-561058
0.0,-0.4103286305555554,Ti2Ge4,mp-567889
1.0375,-0.41661677158854227,In2Sb4Se8Br2,mp-570321
0.0,-0.9182099805555559,Ti2Al2Pt2,mp-570713
0.0,-0.9194714519999998,Tm1Si2Pd2,mp-571485
0.0,-0.6261825012499997,Yb4Ni4Ge8,mp-573267
0.0,-0.4823574846551733,Ge16Pd42,mp-582201
2.0817,-3.1961703141666677,Gd8Mo4O24,mp-582797
0.0,-0.5102148162500004,Ba6Pb10,mp-630923
0.0,-0.2873666416666667,Y3Mg3Zn3,mp-6908
1.3793000000000002,-1.6259677695,Ba2Cu4O4,mp-7374
2.1467,-2.495303014390318,Li2V1Cr1P2H2O10,mp-753660
0.45809999999999995,-1.1204380464798849,Rb2O1,mp-753746
0.43830000000000036,-2.4437813146354173,V12Ga6O30,mp-757877
1.9773000000000003,-2.81034193124994,Li6V3Cr3P6O24F6,mp-760236
3.3768000000000002,-3.27708989375,Li2Ta6O16,mp-7638
0.6265000000000001,-2.330657403091905,Na4Mn2P2C2O14,mp-780530
0.0,-0.30432177366666624,Ca1Ag2Ge2,mp-7878
0.32559999999999967,-1.3964589392500002,Mg1Pt3O6,mp-8208
0.0,-0.2673221595000001,Nd8Re4C8,mp-864686
0.0,-0.7197034312500001,Tm1Zn1Rh2,mp-865299
0.0,-0.3478054379166666,Ti1Zn1Au2,mp-865730
0.0,-0.3886457987499998,Gd1Cd1Hg2,mp-865745
0.0,-0.76632682375,Yb1Sn1Rh2,mp-865992
0.0,-0.6505547250000001,Ti1In1Rh2,mp-866170
0.0,-0.5370468529166668,Ca2Ag1Sn1,mp-867751
2.1819,-1.0820105547152779,Na6Ag2S4,mp-9634
0.0,0.0,Cr1,mp-90
0.0,-0.1867089397619048,Eu2In2Ni10,mp-1006242
0.0,-0.2172443394444444,Tb1Cu4Ag1,mp-1072264
0.0,-0.9552481549999996,Yb4Au4,mp-1084808
0.0,-0.7392614399999999,Nd4Al4Au4,mp-1101773
0.0,-0.28292832312499994,Sr12Hg4,mp-1105844
0.0,0.0,Sb2,mp-1179605
0.0,0.0,Dy4,mp-1184067
0.0,-0.2654757449999998,Gd2Mg1Al1,mp-1184333
0.0,-0.2442590412500003,Nb2Tc1Os1,mp-1186210
3.1466,-1.533543229683908,Cs2Hf4Br18,mp-1190089
3.3814,-2.1179661789322917,Ca4Se4O16,mp-1190360
1.6177000000000001,-2.111268072803031,Cd6B4O12,mp-1192091
0.0,-0.08774523298076858,Ni12W12C2,mp-1194082
2.0208999999999993,-2.031775070912223,La12Si4N16F4,mp-1194197
0.0,-0.4655173593749993,Hf12Mn12Ge24,mp-1197660
0.0,-0.49898115379629676,Tb4B16Ru16,mp-1199943
0.0,-0.14219867295918337,La18In3Co28,mp-1202244
0.0,-0.50134817712963,Dy4B16Ru16,mp-1202990
0.0,-0.9474700301587302,Tm6Co18P12,mp-1204407
0.8026999999999997,-2.57642028475,Y4Rh4O12,mp-1207629
0.0,-0.27119837990566026,Yb12Nb8Al86,mp-1207755
2.1394,-1.5455837438485223,Rb4Pb4O6,mp-1209489
0.0,-0.2827698575862079,Ni21Ge2B6,mp-1209988
0.0,-0.21695397574999972,Nd12Al10Fe18,mp-1210082
0.0,-0.2474897377566947,Hf18Mo8Se2,mp-1212479
2.996,-3.523936694362778,Gd2Ti2Cl2O6,mp-1212518
0.0,-0.2860325069999998,Ca1Zn2Si2,mp-12137
0.0,-1.1134442922077932,Zr5Te4P2,mp-1215367
0.033499999999999974,-1.1538955760434013,Rb8Nd1As4S16,mp-1219658
0.0,-0.30615444625000077,Nb1Ga3Ni12,mp-1220743
0.0,-0.6775471683333324,Eu2Ga2Au2,mp-1225205
0.9447999999999999,-1.7162402971428565,Cr1Co4Sb1O8,mp-1226307
0.0,-1.8324424988541665,Ce3Ge1S2,mp-1226804
0.0,-2.916044870316999,Ca1La3Mn4O12,mp-1227182
1.593,-1.7901681999999997,Ba1Te1,mp-1000
0.0,-0.06695734916666662,Ti2Ag2,mp-1017985
0.0,-0.7019729812500007,Er2Fe2Si2C1,mp-1025354
0.023299999999999876,-1.3760572299999998,Ce2I6,mp-1025426
0.0,-0.6037092043749999,Sm2Al4Ni2,mp-1025458
6.5421,-4.0113823446425,Mg1Zr1F6,mp-1025460
1.3538999999999999,-0.5854568911900001,V2Zn4N6,mp-1029262
1.3876999999999997,-1.8182254826707491,Hf2Se1N2,mp-1029330
0.0,-0.8749618836899996,Mg8Cr4N12,mp-1029520
0.0,-0.46773576000000094,Be1Ni1,mp-1033
0.0,-0.24699795500000032,Pt2Pb2,mp-1066274
0.0,-1.2786432682142852,La2P2Rh2,mp-1070925
0.0,-2.924100167708334,Ti3O3,mp-1071163
0.0,-0.9227638759999991,Eu1Si2Pt2,mp-1076931
0.0,-0.42574494388888934,Ti2Ge2Sb2,mp-1076973
0.0,-0.6508300883333332,Dy2Al2Ge2,mp-1076977
0.0,-0.8138217133333343,Tm3In3Pd3,mp-1078235
0.0,-0.8040573037500005,Eu4Au4,mp-1078589
0.0,-1.28095436,Dy4Pt4,mp-1078613
0.0,-0.622686241666667,Y2Ag2Sb4,mp-1078739
0.0,-0.7639613909999994,Pr2Ge4Ir4,mp-1079141
0.0,-0.25958063600000114,B6Os4,mp-1079348
0.0,-0.7139102375000004,Y2Au6,mp-1079467
0.0,-0.8284943037499994,Gd2Si4Ni2,mp-1079677
0.0,-0.48453348388888884,Pr3Al3Ni3,mp-1079699
0.0,-0.6488667161785727,Ce2P2Ru4C2,mp-1080729
0.0,-0.39479963116666567,Pr2B4C4,mp-10853
0.0,-0.7246766677777781,Tm3In3Au3,mp-1092318
0.0,-1.4108941001923085,Nb8Co2S16,mp-1094100
0.0,-0.7634742199999998,Ce2Ga4Pd4,mp-1095071
0.0,-0.5366408416666658,Gd2B4Ru4,mp-1095164
0.0,-0.5037829309090909,Yb3Cu4Ge4,mp-1095653
0.0,-0.6723288208333335,Lu8Au4,mp-1101816
0.0,-0.9614587225000003,Eu4Sb4Pd4,mp-1101822
0.0,-1.7987319438541671,Gd4As4S4,mp-1101897
0.0,-0.9475769408333328,Ba4Si4Pt4,mp-1101912
0.0,-0.9715301174999998,Ca4Al4Pt4,mp-1102631
0.0,-0.4450819991666665,Eu4Mg4Si4,mp-1102652
0.26170000000000027,-1.4036663411979162,Tm4As4Se4,mp-1103398
0.0,-0.8306543263265301,Y2Ni8P4,mp-1104054
0.0,-0.634167128571428,Y2Ni8As4,mp-1104069
0.0,-0.9309300250000001,Tb6Pd8,mp-1104088
0.0,-0.2808645810714288,La10Ru4,mp-1104417
0.0,-0.8575630457142859,Yb10Pt4,mp-1104662
0.0,-0.2795177448717948,Ba9In4,mp-1105101
0.0,-0.6686553931250003,Lu10Sn6,mp-1106258
1.5975000000000001,-1.8064863518640462,Cs2In2Cl6,mp-1112961
0.0,-0.5672913466666666,Ce3Al3Ni3,mp-11351
3.6181000000000005,-2.396447899007913,K6Mn2P2C2O14,mp-1178149
0.0,-0.28904379750000064,Pr2Ni2,mp-11799
0.0,-0.4704244449999997,Ba2Tl1Hg1,mp-1183313
0.0,-0.2994222012500001,Ca1Dy1Zn2,mp-1183478
0.0,-0.006420505000000354,Er6Tm2,mp-1184192
0.0,-0.2629929999999998,Eu1Mg1Cd2,mp-1184290
0.0,-0.3750494050000004,Lu1Al1Cu2,mp-1185509
0.5296000000000003,-0.025976258955555522,Mg149In1,mp-1185594
0.0,-0.38414979562499996,Yb1Sm1Cd2,mp-1187522
0.0,-0.5025209449999997,Tm2Ga1Ru1,mp-1187575
0.0,-0.006104542499999255,Tm2Lu6,mp-1187686
0.0,-0.4225634479999997,Dy8Re4C8,mp-1188135
0.0,-1.01293439045139,Zr10Sb6S2,mp-1189323
0.0,-0.435681654280303,La5In11Ni6,mp-1192186
0.0,-0.7086386520689651,Hf6Al16Pd7,mp-1193241
3.4299999999999997,-1.4149054900348215,Na3H5Se4O16,mp-1193700
0.0,-1.212429577785192,Cu4Pb2Se4Cl4O12,mp-1193833
3.0459999999999994,-1.806515607850986,Cs4Tm4Si4S16,mp-1194326
2.9158999999999997,-1.548716607585228,Li8Se8O28,mp-1194726
1.5309,-1.4702846953178565,Li1Mn3H6Se8O24,mp-1196748
0.0,-0.6894205761499995,Er30Si18C2,mp-1196963
5.4788,-1.7199874025872859,P8H36N4O32,mp-1198510
0.0,-2.0215299999739584,Eu4V4Se8O32,mp-1198609
0.0,-0.3500736972142865,Fe8P48W4,mp-1199047
0.0,-0.6572142956521742,Er10Co8Si28,mp-1199544
0.0,-0.5152909995454539,Al18Ir4,mp-12003
0.0,-0.42687205106383097,Y15Ni32,mp-1200338
0.0,-0.3931555002631581,Dy2Ni24B12,mp-1202380
0.0,-0.39386261868421074,Y2Ni24B12,mp-1202784
0.0,-0.30865807149999896,Lu6Ge26Os8,mp-1203141
0.0,-0.3285043537499995,Er6Ge26Os8,mp-1203201
0.0,-0.6119957346354165,La21Mn8Sb7C12,mp-1203312
2.9907999999999997,-1.3202496522384302,Na10Ga14H24S26O12,mp-1204283
0.0,-0.1302411766326529,Ga40Ge1Mo8,mp-1204805
0.0,-0.6585875080000001,Pr4Mg2Si4,mp-1205589
0.0,-0.6798986861785707,Y2P2Ru4C2,mp-1205622
0.0,-0.5102709027499998,Er2Si2Os4C2,mp-1206269
0.0,-0.21884458625000036,Cr1Ge1Ru2,mp-1206594
0.0,-0.6076543241719996,Ca1H3Pd1,mp-1207169
0.23489999999999966,-0.6013852094897965,Y2Zn6P6,mp-1207692
0.0,-0.5134202599999994,Y2Al20Ru4,mp-1207698
0.0,-0.7184279537500001,V5Se8,mp-1207893
0.0,-0.8300837385714287,Tm6Si6Ni2,mp-1207982
0.0,-1.1067838320238095,Ti22Cu2P16,mp-1208222
0.0,-1.1645584150000001,Tb4Si4Pt8,mp-1208318
0.0,-1.379912678937501,Ta6Co2S12,mp-1208409
0.0,-0.30341355300000006,Tb4Cd2Cu4,mp-1208521
0.0,-0.6819220510714287,Sm8Sb20,mp-1208933
0.0,-0.6670567162500003,Pr20Co4Sb8,mp-1209631
5.961099999999999,-3.1180872531372557,Nd4Mg4B20O40,mp-1210080
0.0,-2.2907980350594483,Rb12Eu4Cl24,mp-1210383
0.0,-0.6739700514285712,Lu4Ga18Rh6,mp-1210956
4.916399999999999,-2.52882696185,K8Dy4Cl20,mp-1212062
0.0,-0.6140029176470588,Dy4Ga12Pt1,mp-1212792
0.0,-0.8344683566666665,Er4Si4Ni4,mp-1213005
1.0351000000000004,-0.22943915339843768,Cu4Te4Se4Br4,mp-1213194
0.0,-2.2501379166666666,Eu2Cu2W4O16,mp-1213368
0.0,-0.32637336636363623,Ca16In6,mp-1214306
0.0,-4.1639091502675,Yb1Gd3F12,mp-1215594
0.0,-0.3402316762499993,Tm2C1,mp-1216546
0.0,-0.4237106980000004,Sr1In3Au1,mp-1218236
0.0,-2.0789388818749996,Sc2C1O1,mp-1219429
0.0,-0.02581098249999947,Sb1As1,mp-1219457
4.404,-3.7154424306428573,Na1Ho9Si6O26,mp-1220852
0.0,-2.224837619747001,La4Bi4S8O3F1,mp-1223105
0.0,-1.224023603116667,K1Ti6Se8,mp-1223931
1.3568,-0.47236175622421045,Hg11I2Br1Cl1O4,mp-1224171
0.0,-0.8460928527777772,Hf1Ta1B4,mp-1224283
0.0,-0.605570725476191,Eu2As7Pd12,mp-1226033
3.1725,-2.7025422394081997,Cs2W1O2F4,mp-1226138
0.0,-0.6578969221875006,Ce4Ni4Bi3Sb5,mp-1227577
0.0,-0.40753162166666596,Al3Si3Mo3,mp-1228015
0.0,-0.4659683296333336,Ba2Na1Sn6As6,mp-1228433
0.0,-2.925024313671874,Ba8Zr1Nb19O36,mp-1228755
0.0,-0.8405479999999999,Pr3Sn3Rh3,mp-12381
0.0,-0.7648520380000001,Er6Pd4,mp-12545
0.0,-0.6999816580208336,Ti4Al2C2,mp-12990
0.0,-0.5324818231249999,Sr4Li4Ge8,mp-13139
0.0,-0.16231695020833334,Nd2Mg4Cu18,mp-13221
0.0,-0.46989476166666694,Ba1Al1Ge1,mp-13272
0.0,-0.3932128783333333,Ce1Mg1Ni4,mp-13435
1.1360000000000001,-0.6218971622135419,Al2Ag2Se4,mp-14091
1.1052999999999997,-1.1637890883243536,Rb2V2Cu4S8,mp-15998
0.0,-0.42395968214285723,Ag6O8,mp-1605
5.1097,-3.7422170515405875,Dy12Si12O40F4,mp-16164
0.0,-0.32033802124999955,Ge2Pt6,mp-16315
0.0,-0.6442912856521742,Lu10Co8Si28,mp-17460
0.0,-0.4692812935714293,Pr2Co18Si8,mp-18285
1.438,-0.6824905601111111,K8Cd12Te16,mp-18531
2.8032000000000004,-2.6772917653441066,Mn8P4O16F4,mp-18822
3.4076999999999997,-3.73809422131579,Ho6W1O12,mp-19065
2.9292,-1.6367955868806823,K2Co1Se2O6,mp-19189
0.0,-1.8933111577500008,Yb4Ni4O12,mp-19249
0.0,-0.7396795476562499,Mn1Cu2Sn1S4,mp-19722
0.0,-1.0671680671426664,Tb3In1N1,mp-19769
0.0,-0.20093244738095198,Cr4Ag2Te8,mp-20118
0.0,-0.6522196480555559,La2Ag2Ge2,mp-20568
0.0,-0.7361090496666669,Nd4In2Ge4,mp-20575
0.0,-0.05829784666666645,Mg2Pb1,mp-20724
0.0,-0.4015847805952382,La1In5Ir1,mp-20911
0.0,-0.5164372783333336,Lu2Ni4,mp-2130
0.0,-0.442746537083333,Sc1In1Ni2,mp-21301
0.0,-0.28201650654166643,Na2In4Au2,mp-21352
0.0,-0.6598699397222221,Sm3In3Ir3,mp-21379
0.0,-0.9249383349999997,Tb4Sn4Pd4,mp-21401
0.0,-0.808758206666667,Nd4In2Pd4,mp-21450
0.28469999999999995,-0.36848269009722284,Na24In8Sb16,mp-21547
3.7224999999999997,-2.3964296210770746,P6Pb10O24F2,mp-21554
0.0,-0.27636352807692244,Tb2Fe12Ge12,mp-21565
0.0,-0.4606023908333343,Ti2Sb2,mp-2187
2.5103,-2.89371905205111,Mn4Nb8O24,mp-22100
1.4466999999999999,-2.876625581249999,Pr4Fe4O12,mp-22341
0.0,-0.9148845763888898,Nd3Sn3Pd3,mp-22419
0.0,-1.0945928183333333,Lu4Si4Rh4,mp-22801
0.0,-0.5329420816666666,Yb2Cu2Bi2,mp-22953
1.3453,-1.9311474333899505,Rb2Mn1Cl4,mp-22978
0.0,-0.4053996022222211,Ho6Mn1Bi2,mp-23047
0.0,-0.3252909956250005,Ru4Br12,mp-23294
0.0,-0.3413207208333331,Er1Ag1,mp-2621
0.0,-0.5639017353571438,La1B6,mp-2680
3.7041000000000004,-2.677395614627976,Li4Cr2P4O14,mp-26965
2.9048000000000003,-1.8286114828384612,Ge2Br4F20,mp-27218
0.8199999999999998,-0.47063959825000057,Au4O6,mp-27253
0.0,-0.5812373582812498,Nb2Cr2Se10,mp-28019
5.3681,-2.4971261158924998,As4F12,mp-28027
0.0,-1.1575068274904214,Cs8Sb4Br24,mp-28269
3.5092999999999996,-2.684168659558704,Sb22F86,mp-28294
1.1444,-0.9065094286263737,Ca5P8,mp-28879
0.0,-3.1558507893333334,Na4Ti8O16,mp-29356
0.0,-0.27647800166666653,Zr8Bi16,mp-29642
0.0,-0.22272718500000038,Li84Si20,mp-29720
1.8881000000000001,-2.2048707911458343,V2Re4O18,mp-29931
0.09269999999999978,-0.4448122781481482,Sb7Pd20,mp-30066
0.01869999999999994,-0.38721754368181843,K24Tl8Sb12,mp-30149
0.0,-1.62194401,Tb8Si2Br12,mp-30283
0.0,-0.33599624277777745,Er1Ag2,mp-30339
0.0,-0.3118499861111112,Sr2Ag4,mp-30356
0.0,-0.74154599,Ba1Au2,mp-30363
0.0,-0.3575289975,Y2Hg6,mp-30726
0.0,-0.5731787329999996,Sr1Sn3Pd1,mp-30834
1.2986000000000004,-2.5335817577703694,Ba12Mn10O32,mp-30895
3.6544000000000003,-0.4522581903077783,Cl4O14,mp-31050
2.8849,-1.025693662596154,Bi4I12O36,mp-31259
0.0,-0.34240021130769205,K8Ga2Au16,mp-31484
0.0,-0.8534293220833339,Ce8Al8Rh8,mp-3344
5.4052999999999995,-3.7799628895359647,Zr6In2F30,mp-34291
0.0,-0.9534196850000001,Tm1Pd1,mp-348