band_gap,formation_energy_per_atom,full_formula,task_id
0.0,-1.1112381283333335,Pr2Sb2Pt2,mp-1018902
0.0,-0.3101353428571433,Zn1As1Pt5,mp-1025356
0.0,-0.7014797438771428,Sr6Ru2N6,mp-1029750
0.0,-0.5884989869999998,Tb2Ni2Sn1,mp-1068217
0.0,-0.5360792397321431,Tl2Pd3S2,mp-1077950
0.0,-0.6368973125000004,Ce2Co2Sb4,mp-1079392
0.0,-0.9128769734999999,Nd2Ge4Pt4,mp-1079773
0.0,-0.7494081470000005,Ho4Co2Ge4,mp-1080818
0.9609999999999999,-0.4237707565000002,K4Bi2Au2,mp-1084770
0.0,-0.8846746936666662,Eu4In2Pt4,mp-1095035
3.0084999999999997,-1.448029514241379,Cs2Li1Y1I6,mp-1112663
0.0,-0.28603455458333293,Gd1Cd1Ag2,mp-1184477
0.0,-0.27608288083333354,Li2In1Pb1,mp-1184985
0.0,-0.4824284997916668,Pr1Nd1In2,mp-1186832
0.0,-0.4609021716666666,Tb1Dy1In2,mp-1187334
0.0,-2.444054729204547,Nd4Ir4O14,mp-1190299
0.15520000000000023,-0.5293422079999994,Er8Zn10Ge12,mp-1192836
0.0,-0.24359989300000015,Ta20Al10,mp-1193531
3.3002000000000002,-2.095919403072631,K4Pb6C6O18F4,mp-1194624
0.0,-0.10663336642156865,Gd8Fe56B4,mp-1198327
0.0,-0.7445301260985218,Cs1P2Rh2,mp-1206405
5.6651,-3.3461672083925,Zr1Ni1F6,mp-1206530
3.0223,-2.993794823772807,Rb2Mn1F4,mp-1206523
0.0,-0.818480876000001,Si2Rh3,mp-1207013
0.0,-0.730229956926108,Rb1P2Rh2,mp-1207113
0.0,-0.8346261808333332,Tb8Hf12Si16,mp-1208581
4.1194999999999995,-2.957817831193182,Sr6Li12Ta4O22,mp-1208758
2.5142,-2.833244092343749,Sm4Cr4Ge4O20,mp-1208812
3.4707,-3.115681918444616,Sm6W2Cl6O12,mp-1208868
0.0,-0.7066039161111106,Tb12Ge36Rh60,mp-1211078
5.0904,-2.993832526299019,Ba8B20Br4O36,mp-1214841
0.0,-0.9498823672857146,Yb6P19Rh30,mp-1215876
0.0,-0.10016682937500043,Mo1W1C2,mp-1221393
0.0,-0.6765908792857138,Ce2Cd1Sb4,mp-1226843
0.03469999999999995,-0.23654400714285728,Li5Tl2,mp-12283
0.0,-1.4575677812068977,Ba1V12S16,mp-1228781
0.0,-0.8850529976666671,Lu4In2Pd4,mp-12691
0.0,-0.5291981112499999,Yb2Al4Ni2,mp-12782
0.0,-0.38779828079545486,Rh3Se8,mp-1407
0.0,-0.29250879624999965,Y2C1,mp-1334
0.0,-1.9643016310714276,Nd2Pd4O8,mp-15051
2.1491000000000002,-3.2533821941666665,Ho8Mo4O24,mp-16811
2.7796,-1.2257273867000003,K2Ni1O2,mp-19252
0.0,-0.5274316754999994,Nd2Ni4Sn4,mp-20000
0.010099999999999998,-1.9381818946425007,Ni1Rh1F6,mp-20580
0.0,-0.3234858437499999,Sm1Zn1,mp-2165
0.0,-0.4582569914999993,La1Mn2Ge2,mp-22760
0.021600000000000286,-0.8453593850000006,Gd1Al3Pd2,mp-22505
5.562900000000001,-2.6456437845540615,Nd4H4S4O20,mp-23831
0.0,-0.8913164678888887,K2Os1Br6,mp-27835
3.1923999999999997,-0.4116558167500003,Hg4Br4O12,mp-27994
1.6964000000000001,-0.7714126813052778,Pd2Se4Cl12,mp-28175
3.7051,-1.837771469189091,Al4Cd2Cl16,mp-28361
0.0,-0.5524809300000009,Dy1Si2Au2,mp-2954
0.0,-0.8409245485625005,K16Ti12Te36,mp-30280
1.4987,-1.6084995199674335,Cs4Na12Pb4O16,mp-505396
1.9449999999999998,-0.47129136703125063,As16S16,mp-542810
2.8394000000000004,-3.016851355959999,K2Mn1F4,mp-557610
1.6301999999999999,-0.4080484846301025,Cu18P24S24I18,mp-565597
0.0,-0.49101964583333313,Tb16Cd4Rh4,mp-568366
0.0,-0.12031423956521729,Mg42Zn50,mp-570025
0.0,-0.42686877844827464,Cs4Te20Mo18,mp-581150
3.4539999999999997,-2.340291353496716,Cs6Na2Li4B4O12,mp-607931
2.4608,-1.1207972017074999,Cl8F24,mp-619575
0.0,-0.6310099458333331,Ce1In1Au2,mp-636232
0.0,-0.579433895375,Nd6Sn26Rh8,mp-680552
2.3007999999999997,-1.7334436756944445,Re2Ag2O8,mp-7094
3.4282000000000004,-3.8158707048863643,Sm6Ta2O14,mp-752686
3.8853,-3.782921809999999,Sr2Zr7O16,mp-770419
0.0,-1.2772910530208321,Hf2Ge2S2,mp-7918
0.0,-2.508714990348889,K2Rh1F6,mp-8018
0.0,-0.42625478749999957,Eu1Mg1Hg2,mp-861928
0.0,-0.21061632250000173,Be1Ru2W1,mp-862622
0.0,-0.24240619500000005,Li1Ca2Rh1,mp-862764
0.0,-0.3306584158333332,Tm1Al1Ag2,mp-980426
0.0,-0.7843093844466669,Ag2H2O4,mp-996958
0.0,-0.567270822916667,Ba2In4Pd2,mp-1025520
0.0,-0.31762717399999973,Yb1Al2Si2,mp-10405
7.008900000000001,-3.061349561722857,Na1P1F6,mp-10474
0.0,-0.48231809575,Y3Ga1C1,mp-10601
0.0,-0.6342601400000003,Ce1Al4Si2Ir1,mp-1078427
0.0,-0.6544272800000002,Pr2Co2Ge4,mp-1079064
0.0,-0.5020198112500003,Ca2Ga4Ni2,mp-1080561
0.0,-0.16376710833333283,Ta4Be2,mp-11278
0.0,-0.47075468666666637,Ba2Cd2Ge2,mp-11816
0.0,-0.4499897766666665,Eu2Ag1Pb1,mp-1184199
0.36219999999999963,-0.014667739866666429,Ba1Mg149,mp-1184337
0.0,-0.05108141583333303,Zn1Ag1,mp-1187974
2.0326000000000004,-2.7197847407499998,Ca4Cr2Sb2O12,mp-1189906
0.0,-0.7068172945238086,Dy2Mn12P7,mp-1190617
0.0,-0.6889616188095241,Eu2Co12P7,mp-1191681
2.5923,-2.37947841377193,Ca30I12O72,mp-1196062
2.3055,-0.48046920910271446,Cu4As48P16S48Cl4,mp-1197298
0.0,-0.8141173063888879,Eu12Ge8As16,mp-1200526
0.0,-0.8290117223809522,Pr6Co18P12,mp-1204360
0.0,-2.526842723496622,La4Tm11S22,mp-1204597
0.0,-0.8947640600000012,Zr4Ni4As4,mp-1207428
0.0,-0.6992449805555552,Tb3Cd3Pd3,mp-1208303
2.5202,-0.39006005399999993,Te8Br32,mp-1208424
5.5128,-2.762793765422795,Sm4S6O24,mp-1208980
4.3342,-2.422244481463572,Rb2Y2Se2Cl4O6,mp-1209082
4.3862,-4.242675400874631,Rb2Gd6F20,mp-1209289
0.0,-0.31467585631578965,La12Ni6Pb1,mp-1211984
1.3301000000000003,-2.1379199728280947,Hf12C2Cl28,mp-1212485
1.0112999999999999,-0.9519686993769165,Hf4Te28Se4Cl24,mp-1212434
0.0,-0.40428400583333346,Ti1Ga1Ni6,mp-1216876
0.0,-0.28644397000000055,Tb1Cu2Ni3,mp-1217570
0.0,-0.5059835375,La1Nd1Al4,mp-1222785
0.0,-0.24354751375000028,Fe3Ni1As4,mp-1224770
0.0,-0.5405195066666669,Sc2Cu2Sn2,mp-13203
0.0,-0.3403306649999999,Ca2Cd4,mp-1444
0.0,-0.7382161058333327,Dy4Zn4Rh4,mp-13379
2.5344,-2.523934324270835,Ca2Ga8O14,mp-17914
2.2868999999999997,-1.2341990528566658,Sr8Nb4N12,mp-17701
0.0,-1.0566840414285719,Gd8Sb6,mp-20831
0.0,-0.8840731666666664,Tm4In2Pd4,mp-21205
0.0,-0.7775000666666673,Yb3In3Pd3,mp-21499
3.8015,-2.1445149146749998,Na8W2O10,mp-19334
0.0,-2.858687270000001,Ba2Mg1Re1O6,mp-22441
0.0,-0.6961218555555556,Ce4Ge12Pd20,mp-21689
3.3405,-1.8848701169471427,Te4O6F4,mp-29185
0.0,-0.7474151305555563,Dy3Bi3Rh3,mp-30307
0.0,-0.5433344385714288,Ho2Al3Si2,mp-3328
0.0,-1.078046898999999,Pr1Si2Rh2,mp-4815
3.9435000000000002,-2.4818349002105258,K12Sc4Mo12O48,mp-555776
6.4524,-3.3546691103833335,K20Li8Nd4F40,mp-557798
3.2106999999999997,-2.4938495033035717,Dy16Te24O72,mp-558224
5.206300000000001,-3.0655284957461237,Sr8B28O50,mp-559330
0.0,-1.0237403599458141,Ce2Ag12N18O54,mp-560230
1.6195,-2.196970721805555,Ba6Zn10In4O22,mp-560544
0.0,-0.7041678863888888,Sm3Hg3Pd3,mp-567912
0.0,-0.5453123491379321,Mg6Si7Ni16,mp-570457
0.0,-0.3947403385000001,Ba4Al8Ge8,mp-570482
0.0,-0.6882402838888879,Ce1B2Rh3,mp-5757
3.7131000000000003,-2.9139264416666673,Ba8Ti4Ge8O32,mp-6289
0.0,-0.25759562333333247,Tm2Co4,mp-632
0.0,-0.318967448250001,Ta8Co16Te16,mp-653697
0.0,-0.8512874483870974,Sm20Pd42,mp-662804
3.1473999999999998,-3.225876151952618,Cs2Ti2Zn2O2F10,mp-676448
0.2591000000000001,-0.9849116183976285,Cs4Ta4Se12,mp-685607
1.3435000000000001,-2.556864113081818,K4Mn2H4O2F10,mp-696630
0.0,-1.1731686083125,Pr14C6I20,mp-645425
0.8248999999999999,-1.8387531057500002,Na4Co2As2C2O14,mp-772664
0.0,-0.3374857775,Tb1Zn1,mp-836
0.0,-0.70905615625,Pm2Ir1Au1,mp-863715
0.0,-0.898728779919999,Yb2N4,mp-864757
0.0,-0.5768213616666666,Mg2Ag1Pt1,mp-864932
0.0,-0.3472973687500005,Ta1Zn1Ru2,mp-865234
0.0,-0.46219330874999986,Eu1Bi3,mp-865246
0.6421000000000001,-1.6555031428925,K8F24,mp-867934
1.8334000000000001,-2.5996132265969227,Na2Cr1H2F8,mp-973225
0.0,-0.6615335911111112,Ho6Co1Te2,mp-976064
0.0,-0.4836495998611123,Yb4B16Ru4,mp-982045
0.0,-0.49324849111111113,Hf10Zn2Sb6,mp-9952
0.0,-0.7929361929519999,Ca4Co2N4,mvc-15272
2.0976,-2.837953290492858,Ca4Ni4F20,mvc-3744
0.0,-0.6295570599999998,Ho2Ga2,mp-1018073
0.0,-0.5793095333333333,Y2Zn2Ga2,mp-1071737
0.0,-1.040070580475998,Hf6Al2N2,mp-1079110
0.0,-0.5507601912500002,Tm2Cu2Sb4,mp-1079294
0.0,-0.442585022222222,Er2Ni1Sn6,mp-1079596
0.0,-0.6603217831250001,Nd2Co2Ge4,mp-1080572
0.0,0.0,Mg9,mp-1094122
0.0,-0.22195647750000091,Er4Tc8,mp-1095604
0.0,-0.7038405515894388,Rb2Mo6Se6,mp-1103685
0.0,-0.40173590083333327,Sm3In3Cu3,mp-1179530
0.0,-0.5074399776666667,Hf8In4Ni8,mp-1185055
0.21370000000000022,-0.02086760188333301,Sm1Mg149,mp-1187791
0.0,-2.6444512082500005,Eu4Mg2Ir2O12,mp-1188494
0.0,-0.5591245614583329,Tb4B8Os4,mp-1189495
0.0,-0.0907827566477279,Er2Fe17C3,mp-1191671
2.7981999999999996,-1.377732994431111,Bi4Te4N4O24,mp-1195032
4.2219999999999995,-2.094816740927083,K4Sb4S8O32,mp-1195296
0.0,-0.38155259361111227,Ta16Co4Te16,mp-1199549
0.0,-0.8644756478378374,Er6Si22Pt46,mp-1201817
1.529,-1.7171247769687497,Ba2Pd2Se4O12,mp-1205352
0.0,-0.9954132944759998,Pr3Sn1N1,mp-1206822
3.7864999999999998,-2.790983849671698,Rb36Mg12B58O116F2,mp-1200013
0.0,-0.8157800648611118,Sm3As6Pd9,mp-1208854
0.0,-2.479350436695403,Rb2Eu2W4O16,mp-1209558
0.0,-0.7370935916666662,Pr10Sn6Au2,mp-1209635
0.7229000000000001,-2.414840542180243,Rb4Cu4P12O36,mp-1209760
0.0,-1.0010013057142852,Li4Eu4P4,mp-1211143
0.0,-0.6956462650000006,Nd4Ni4Ge4,mp-1210049
0.0,-0.8294439625,Er4Al18Rh6,mp-1212861
0.0,-0.9875754963127416,Dy16Ni36P22,mp-1213609
0.0,-0.14171931921568662,Tb4Nd4Co56B4,mp-1217550
2.5615,-3.009199188162223,Ta4Mn4Nb4O24,mp-1217948
0.0,-0.029994935999999937,Pd4W1,mp-1219940
0.0,-0.2145382174999999,Li2Mg1Tl1,mp-1222613
0.0,-0.3111480603571429,Li4Cd5Sb5,mp-1222490
0.0,-0.2768475308341541,K1Rb1In4Au8,mp-1223353
0.0,-0.6170111749999995,Ho1Zn1Si1,mp-1223786
0.0,-0.7271510799074071,Lu16V20B72,mp-1223330
0.0,-0.12828385095238154,Gd12Co9,mp-1225806
0.0,-2.783314541691999,Ca2Sm2Mn4O12,mp-1227151
0.0,-0.2882734674999998,Nb2Ni6,mp-1451
0.0,-0.6987096919999984,Ho4Ge4Os2,mp-15827
0.0,-0.19446401750000142,V6Co2,mp-1585
0.9405999999999999,-0.3567487162698413,Na20Sn4P12,mp-18317
4.146599999999999,-2.7282853224999997,Ba2Mo2O8,mp-19276
0.0,-0.4942353988888885,Dy1Co3B2,mp-20193
0.0,-0.32109695000000116,Ga1Ru1,mp-22320
0.0,-0.4433143930357142,Ni12P4,mp-2296
0.0,-0.8628143329166656,Y2C2I2,mp-23062
0.0,-0.7836961461904763,Sr3Ni6P6,mp-29167
3.8132,-2.4092767720899997,Na4Sc4Cl16,mp-29432
0.0,-0.17062933412500003,Na16Pb16,mp-30792
0.0,-0.39674060999999955,Lu2Ni1Sn6,mp-31136
0.0,-2.688601584659092,Eu4Sn4O14,mp-505306
0.0,-1.0801375246174576,Rb2Fe2S4,mp-5372
0.0,-0.595599984259259,Al6B4Ru8,mp-541849
0.007299999999999973,-1.8184612823863633,V4Cu4O14,mp-542860
2.0248999999999997,-1.80409642121638,Cs8K8Te4O20,mp-556400
0.8801000000000005,-2.977590623799019,Eu8B20Br4O36,mp-558834
0.0,-0.6223759368181816,Er3Cu4Ge4,mp-567621
0.0,-0.4814438548214294,Sm2Co18Si8,mp-567852
0.0,-0.6554864999999994,Sc1Bi1,mp-570632
0.952,-0.634993207667215,K20Ag8As12Se36,mp-570836
0.10279999999999978,-1.5851989070588237,Pr6Co1Br10,mp-570965
2.2085999999999997,-0.6814063150000003,Tl1I1,mp-571102
0.0,-0.4102558256666654,Nd2B4C4,mp-5765
0.0,-0.25388841514705973,Ta84Te52,mp-680343
0.0,-0.26842528222222245,B2Pd4,mp-7424
0.0,-3.3796486910526315,Dy5Re2O12,mp-766367
0.0,-0.7069672325000003,Mg2Pt1Rh1,mp-864940
0.0,-0.20188096000000044,Al1Fe2W1,mp-862288
0.0,-0.6015653199999997,Lu1Tl1Rh2,mp-865438
0.0,-0.33567480812499984,Yb1Sm1Zn2,mp-865991
0.0,-0.8899668775,Yb1Dy1Pd2,mp-980384
0.0,-2.1099487993749997,Dy2S4,mp-1018675
0.0,0.0,Pr2,mp-1059256
0.0,-0.5293044025000002,Ba2Cd4Pt2,mp-1078435
0.3878999999999997,-0.9457452699999997,Ba4Cd2As4,mp-1079666
0.0,-0.33289706500000005,Hf1Al1Cu2,mp-10887
0.0,-0.5361035299999996,Sr4Ga4Ge4,mp-1102705
0.0,-1.2173698657142857,Tm4Ni4P4,mp-1102558
0.0,-0.12034930874999983,La1Mg1,mp-1104
0.0,-0.9090198043333335,Pr9Pt6,mp-1104177
0.0,-0.2888986173333336,Mn4B16,mp-1106184
0.0,-0.45849301375000007,Ti3In3Rh2,mp-11073
0.0,-1.278982805039064,Nb4Pd2S10,mp-1106085
0.0,-0.5982318400000008,Tb3Al3Ni3,mp-11538
0.0,-0.26505182500000046,Lu2Co1Cu1,mp-1185457
0.0,-0.2934267889583331,Nd1Cd1Ag2,mp-1186295
0.0,-0.06416103041666688,Y6Fe18,mp-1192321
2.2838,-2.3733422457236837,V16Cr8O52,mp-1200219
0.0,-0.8357962550000005,Y5Zr3Ni16As12,mp-1203300
0.7043000000000004,-1.4582825288333339,Zr3Tl2Cu2S8,mp-1207410
0.0,-1.0817659179411776,Zr14Pt20,mp-1207440
0.0,-0.42178019225000013,Pr6Sn26Ru8,mp-1210053
2.1491,-1.634607638695,Nb2Tl2Cl12,mp-1209881
3.1024000000000003,-3.3833512119999996,Nd12Tm8Ga12O48,mp-1210408
2.7388,-1.5324872244999999,K8La4I20,mp-1212017
2.8911000000000002,-2.634282989204546,La4Ga4Ge8O28,mp-1212633
0.0,-0.6949831024999993,Dy10Bi2Pd4,mp-1212882
0.0,-0.6698102812499999,Ce3Ni2Ge7,mp-1213875
3.8454,-3.319252192942709,Ba18Dy6B18O54,mp-1214848
0.0,-0.3800523679166661,Tm1In2Sn1,mp-1216827
0.0,-2.9836261319230775,Ca3Nb12O24,mp-1227240
0.0,-2.1620200204499995,Ba10Bi2Pb8O30,mp-1228869
0.0,-1.0309240499027374,Cs1V1P2S7,mp-12324
0.0,-0.7503108236899987,Mg1Mn1N2,mp-1247154
0.0,-2.1262662065175,Zn1Rh1F6,mp-15637
0.0,-0.7540201987500001,Pr1Pd3,mp-1571
0.0,-0.8128587166666671,Yb1Au2,mp-1668
1.8267,-2.9521532909638695,Rb4Na2Mn6F24,mp-18518
0.0,-0.5263648893749995,Ga4As2Rh10,mp-18561
1.6507,-0.31989290308482127,P4Pb4Se12,mp-20316
0.0,-0.9812331824999999,Yb4Sb4Pd4,mp-20540
0.0,-0.20653074777777766,Ce3Mg3Tl3,mp-21518
4.8667,-2.459739842583334,Nd2H4Cl2O4,mp-24124
1.2844,-1.551127366694406,Rb2Pd1Cl6,mp-28145
0.0,-0.5930042126190477,Ba4Cu6P8,mp-28661
1.9745000000000001,-1.3269490630833332,Na12Au4O8,mp-28365
0.0,-1.0914697871875,La12Si14Br6,mp-29560
0.0,-0.06801572944444582,Ti2Cd1,mp-30501
0.0,-0.47234824400000053,Ba2Ge4Ru4,mp-30050
0.0,-0.513404232307692,Ce2Al20Ru4,mp-31364
0.0,-1.0348493299999992,Lu1Rh1,mp-377
0.0,-0.7219406309999996,Er1Si2Os2,mp-3958
0.0,-0.9411584995000005,La1Si2Pd2,mp-4954
0.0,-0.5535023608333347,Ti6Co10B4,mp-504617
0.0,-0.27633190333333363,Sc2Fe4,mp-540
1.2694999999999999,-2.2442638878125,Nd1Bi2I1O4,mp-549333
1.8157999999999999,-2.1919348821057696,K4V4S8O36,mp-555364
4.3012999999999995,-2.8284784119536894,Cs2Sb4F14,mp-556583
0.0,-0.275917656499999,Ce8W4C8,mp-567492
0.0,-0.38533260624999954,Dy10In6,mp-568144
0.1993999999999998,-0.963183029285714,Pr6Os2I6,mp-570779
2.8561,-0.37838789874999995,Si8I32,mp-635441
3.9717999999999996,-2.6490856738750006,Li12Al4Ge4O20,mp-6765
1.0651,-1.4394498542802279,Cs6Ti6S27,mp-680170
2.8106,-2.599426980734075,Ti2Tl2W2O10F2,mp-690560
1.5754000000000001,-1.5513988611111103,Tc2Ag2O8,mp-7206
4.0436,-3.1673574429999993,Na4Dy4O8,mp-752672
2.3593,-2.6175608549639997,W4O4F12,mp-753398
0.0,-0.06617967628571415,K2Zn26,mp-784
0.0,-0.6235381168749998,La1Hg1Au2,mp-861617
0.0,-0.34619716874999984,Dy2Hg6,mp-864994
0.0,-0.4027041141666672,Ti1Tc2W1,mp-865810
0.0,-0.36035017000000114,Be1V1Ru2,mp-867874
0.0,-0.3981230645833329,Dy2Zn1In1,mp-865157
0.5326,-2.461551263363637,Ba6Na2Ru2O12,mp-9745
0.0,-0.2827370795833333,Pr1Mg1Ag2,mp-975892
0.5894000000000004,-0.46626317541015627,Ge12Ir8Se12,mp-975924
0.0,-0.38621681288461546,La1Al8Fe4,mp-977054
0.0,-0.1616754199999999,Ta2Fe1Mo1,mp-979267
0.0,-0.8017054737499993,Ho2Ga4Pd2,mp-982511
0.7050000000000001,-1.0762606993750001,Nd1Tl1Te2,mp-999319
0.5509000000000004,-2.946319806750001,Ca4V4O12,mvc-13158
2.4387,-3.2384210808925,Mg1Mo1F6,mvc-13940
0.0,-2.302074429750001,Ca4Fe2Ir2O12,mvc-5784
0.0,-0.41520282173469425,Tl1P1Pd5,mp-1025348
0.0,-0.4345547006666678,Ni1B2W2,mp-1070761
0.0,-2.405716579036459,Dy3Sc2S7,mp-1095468
0.0,-0.21882778499999964,Sm4Ru8,mp-1102438
0.0,-1.291989619285714,Lu6Pt8,mp-1104877
0.6513,-1.8061129688999997,Na2C2O6,mp-1120755
1.3536000000000001,-0.6836314883935183,Na1Ti1Cu3Se4,mp-1180119
0.0,-0.6157519999999996,Er2Cu1Pd1,mp-1184092
0.0,-0.3257387770833331,Ho1Mg1Ag2,mp-1184818
0.0,-0.4757917572916668,La1Ho1In2,mp-1185076
0.0,-0.15574978382352941,Zr14Cu20,mp-1188077
0.0,-0.830670412727273,Ho14Te4Au4,mp-1190610
1.7407000000000004,-1.3424571174166677,Cd4Ni12Te6Pb2O36,mp-1194532
1.5819999999999999,-0.7274734495511358,K8Zn4Sn8Se24,mp-1195072
0.0,-0.8658027801587294,Zr8Mn16P12,mp-1196264
0.0,-0.7111526249999992,Sm20Rh16,mp-1196525
0.0,-0.4553089474074075,Nd4B16Ru16,mp-1198170
3.0506999999999995,-2.325270610488722,Mg8Bi32P16O96,mp-1199340
0.0,-0.7104178670000003,Ho4Mg2Si4,mp-1205678
0.0,-0.7704153521874995,Tb4C2I2,mp-1207197
0.0,-3.260968136576069,Cs3Eu1F6,mp-1207159
5.2526,-1.1043493718612503,Tb2Cl6O24,mp-1208575
5.9441999999999995,-2.884576953767361,Mg6B14Br2O26,mp-1210659
2.9703000000000004,-2.5171190466666666,Lu2Tl2W4O16,mp-1210736
0.0,-2.5254610840246303,K2Rb1Yb1V2O8,mp-1211727
0.4546,-1.5633658437083333,K8Co4O12,mp-1212013
2.3468,-3.6551128366310004,Ba4Ca2Mn2V4F28,mp-1214724
0.0,-0.13422131666666695,Zr2V3Fe1,mp-1215479
0.0,-0.37723591999999956,Tb1Al6Fe6,mp-1217840
0.0,-2.314473157656251,Sm1Tm1S2,mp-1218978
0.0,-0.6300286073076933,Sr2Si12Pd12,mp-1218917
0.0,-0.703243502142857,Pr2Cd1Sb4,mp-1219919
2.0722000000000005,-1.9933303509510873,Nd6Mg1Ge2S14,mp-1220243
0.0,-0.050600629999999924,Nb1Mo1,mp-1220327
0.0,-0.3400538945833335,La1Al2Ag3,mp-1223006
0.0,-1.0089532973214292,Cr8Cu3Ni1S16,mp-1226091
0.0,-3.235916165250001,Ba2Eu1Nb1O6,mp-13323
0.0,-0.33488184916666697,Ho1Ni5,mp-1553
0.0,-0.34327417666666565,Si2W1,mp-1620
0.0,-0.7185715675000006,Y6Ge10,mp-17118
0.0,-0.16150444166666636,Ca2Zn22,mp-18567
0.057800000000000296,-2.873018431346,La4Mn2Co2O12,mp-19208
0.0,-0.6845659649999997,Nb4Si4Pd4,mp-22722
0.0,-0.8438154693750004,La2Si4Ru2,mp-28795
1.5168999999999997,-1.4876551090712493,Y1H1Se1,mp-28797
1.4983000000000002,-1.4185642353571435,Hg14P4O20,mp-29958
0.0,-0.36870526833333345,Ba32Ga28,mp-30429
0.0,-0.8198665281250008,Zr4Pd12,mp-30842
0.0,-0.600666854,Tb1Si2Cu2,mp-3456
0.0,-0.1857102699999995,Mn2Rh2,mp-417
0.0,-0.732128009999999,Tb2Sc2Ge2,mp-4395
0.006099999999999994,-0.17131150166666606,Gd2Co4,mp-542633
0.0,-0.5870911224479997,Ce4Ni4Sn4H8,mp-542856
0.00140000000000029,-0.6149981125988886,Li80Ge16N48,mp-531553
4.2082999999999995,-2.6852153545440274,Mn12B28Cl4O52,mp-556656
0.0,-0.2922466833333332,Sr3In11,mp-567822
0.0,-0.3613125633333336,Mg8Cu8As8,mp-569015
0.0,-0.6572729741666671,Sm3Tl3Pd3,mp-569047
0.0,-0.6296970799999997,Tm1Ge2Ru2,mp-570907
1.2552999999999999,-0.7074128006736112,K12Nb8Cu4Se48,mp-6168
0.0,-0.7881059800000001,Ce2Co2Si4,mp-7095
3.9748,-1.9303220065097955,Mn2P4H16O20,mp-721692
0.0,-0.44600962300000013,Ca1Zn2Sb2,mp-7429
3.4413,-3.7356953698186275,La26B8O51,mp-759763
2.5974999999999997,-2.849049546554622,Nb3Cr1P6O24,mp-774426
0.0,-0.08365877416666656,Cd2Ag1Rh1,mp-861878
0.23399999999999999,-0.9172525525000004,Ca2Sb1Au1,mp-861950
0.0,-0.40487786800000003,Na1La1Hg2,mp-865099
0.0,-0.28302205708333306,Tm1Cd1Ag2,mp-865873
0.0,-0.7007218874999994,Pm2Sn1Pd1,mp-864628
0.0,-0.5219722892857142,Yb2Ni12As7,mp-865923
0.0,-0.3917038837499991,V2Rh6,mp-866161
0.0,-0.09713495750000067,Ni2Pt2,mp-945
0.0,-0.4604442672916669,Nd1Er1In2,mp-975442
0.0,-0.542566386904762,Tb2Ni12As7,mp-867324
0.0,-0.37427425499999956,Gd1Mg1Ni4,mp-977381
2.1788999999999996,-2.5102952791071433,Sr4Dy8S16,mp-980666
0.0,-0.9080674020689656,Rb1Pd1Br3,mp-998174
0.0,-0.4751648845833336,Sm2In1Hg1,mp-1005693
0.0,-1.35452090119,V1N1,mp-1018027
0.0,-3.338869727638889,Eu6Al2O10,mp-1019729
0.0,-0.5112899525000003,Nd3Al3Ni3,mp-1078757
0.0,-0.5955183972222223,Dy3Si3Ag3,mp-1095130
4.790500000000001,-3.7353274337500006,Tm2Si2O7,mp-1095467
0.0,-1.2210249815476193,Er4Ni4P4,mp-1103423
0.0,-0.879058353125,Sc6Si6Ni4,mp-11338
0.0,-0.42351230374999993,La1Tl1,mp-11488
0.0,-0.7578783046549997,Hf4Si2H2,mp-1181094
0.0,-0.37670388,Eu1Tl1Hg2,mp-1184250
0.0,-0.27708779607142936,Y20Cd6Ru2,mp-1192484
2.4046,-1.1459742300982145,Na12Sb4S12,mp-1193673
0.0,-0.848098367936509,Er4Co20P12,mp-1195740
3.6348,-3.818811708645834,Ba4La8Sc8O28,mp-1197417
0.0,-0.586211486388889,Pr20Pb16,mp-1198681
2.6382,-2.7326997138585716,Nd8Mo8Cl8O32,mp-1199278
0.0,-0.5335564631249999,Sc12Fe12Ge24,mp-1201682
3.6992999999999996,-2.627932246977693,Sn12Sb4F36,mp-1201723
0.0,-0.3885590249999993,Lu6Co8Ge26,mp-1203436
3.7175000000000002,-1.9853108504559998,Li1Sc1Tl2Cl6,mp-1205649
1.3573999999999997,-2.06936315952381,Ca2Ag2As2O8,mp-1213950
0.0,-2.681752514924242,Ba8Sc3Pt4O18,mp-1214448
0.0,-0.006320360000000136,Tl1Pb1,mp-1216530
0.0,-0.34470679499999984,Sr1Ag3Pd2,mp-1218349
1.6935999999999996,-1.5183921656562493,Sm18Al10Se42,mp-1218878
0.0,-0.21578040833333312,Mg6Al4Cu8,mp-1222208
0.0,-2.95538595933,K4Ba1Nb5O15,mp-1224039
0.0,-0.21813567166666678,Co1Ni1Te4,mp-1226048
0.0,-0.5880378992592585,Ce3Mg2In1Au3,mp-1227195
0.0,-0.3684348546519999,K8Mn4N8,mp-1246385
0.0,-0.2406235230357134,Sm2Mo2C3,mp-13264