band_gap,formation_energy_per_atom,full_formula,task_id
3.0071,-3.0481710747222235,Dy8Te4O24,mp-768313
1.8901,-2.051343911071428,Li4Fe6Sb2O16,mp-771712
1.0064000000000002,-1.884356141002856,Hf12N16,mp-776470
3.0138,-3.8090968201893953,Tb8Ti8O28,mp-779763
4.567900000000002,-2.222965151190476,As4P4O16,mp-8140
6.0084,-3.197864478809524,Mg4Al4B4O16,mp-8376
5.6118000000000015,-2.701011191219062,Na2Mg2S2O8F2,mp-864766
0.042600000000000186,-0.7641837541666671,Mg1Ti1Ir2,mp-864908
0.3489,-2.6638350132305204,Ba2Cu2P4O14,mp-8851
1.3467,-1.2837405354507911,Rb4V2Ag2S8,mp-8901
1.6363,-0.9394076656718756,K4Nb2Cu2Se8,mp-9003
0.6796,-2.16462699996,Cd2Cu2F8,mp-9075
0.01309999999999967,-0.7038923212499993,Tm2Fe2Si2C1,mp-9211
1.0549000000000004,-0.7780554045312501,Tl2Pt4S6,mp-9272
0.9640000000000004,-0.5115819988888894,Ti1Fe1Te1,mp-961673
5.0883,-2.9453320141683617,Cs1Sb1F6,mp-9636
3.5796,-1.8714094299020003,Re4Cl4O12,mp-974724
4.6455,-3.2708988937152785,Ba1Al2B2O7,mp-9844
1.0290000000000001,-1.0173769111278737,Rb2Ag2O4,mp-997052
2.2791,-2.17347792315625,Na1Tb1S2,mp-999126
2.2312,-2.1433330387812504,Na1Sm1S2,mp-999455
2.0406,-3.125327012992857,Ca2Co2F10,mvc-14161
1.9055,-2.896590277278572,Mg2Co2F10,mvc-14324
2.3963,-2.6271607183750008,Ca12Ge12Mo8O48,mvc-4467
1.2536999999999994,-1.81122171703125,Lu1Tl1S2,mp-1001604
5.8458000000000006,-2.3424559602092323,Cs8B8S12O52,mp-1019604
4.961200000000002,-2.2562213119613794,Rb2Mg1Cl4,mp-1025227
3.0474999999999994,-1.5225780348089983,Y6Si12N22,mp-1029652
1.3146,-1.0249983174400006,Li4V4N8,mp-1029932
1.6254999999999995,-2.09460173405,K2Ba2Bi2Te2O12,mp-1040443
3.7163,-1.9601010001473795,Cs2Na1Bi1Cl6,mp-1080041
4.6865,-0.19142296407999973,Li2Ga2H8,mp-1095586
3.2668,-3.4785129170238087,Gd2P2O8,mp-1103324
7.6406,-2.9360868467142858,Ca2H4F8,mp-1104135
3.3296,-2.2176765717842106,Hg1As2H2F14,mp-1105456
0.07769999999999921,-0.6163538225000009,Tm4Ge10Ru6,mp-1106240
4.8626000000000005,-2.420562107006,K2Na1Lu1Cl6,mp-1111639
1.235,-1.1123376727413796,Cs2Tl1As1Br6,mp-1112112
1.4529999999999998,-1.3016305757480242,Cs2La2Hg2Se6,mp-11124
4.2395,-1.8625188577913792,Cs2K1Nd1Br6,mp-1112758
2.7260000000000004,-2.7187469246220464,Cs2Ga1Ag1F6,mp-1113583
2.4043,-3.1533744256187504,Na8V4F20,mp-1120790
1.6174,-1.0738138552812506,K2Sb2S4,mp-11703
0.6149000000000004,-2.634938499666668,Sr24Fe12Mo12O72,mp-1173284
2.4121,-1.9771695038766663,Na1Mn2Mo2H3O10,mp-1173541
1.2698,-1.682019181875,Fe2O2,mp-1178232
4.6896,-0.9096506894435714,H80N16O16,mp-1181559
0.05410000000000004,-0.02602633619999968,Mg149Ir1,mp-1185575
0.5947000000000005,-0.7591475485000003,Tm6Sb8Au6,mp-1188981
0.06149999999999967,-0.9615290488888886,Eu6Al4As8,mp-1189098
1.0868000000000002,-0.8761024787301585,Ca6Ga4P8,mp-1189986
2.1763000000000003,-1.3216625665278874,Cs8In4S10,mp-1190726
0.0918000000000001,-2.4996825894642862,Eu4Ho8S16,mp-1193160
1.0352,-0.8189731167949513,Rb8Mo4Se16,mp-1193232
4.1573,-2.9114126811111105,Ba3Ge2B6O16,mp-1194165
2.6888,-3.633062894120625,Nd12Se6O6F12,mp-1194517
4.5605,-3.717470046638339,Cs2Ti16F66,mp-1197107
1.1803999999999997,-2.298012039414064,Tb8Zr4S20,mp-1197252
0.04790000000000028,-0.31145419492957765,Ho26Zn116,mp-1197586
4.0405,-1.4689704967137909,Mg2Tl4H24Se4O28,mp-1197665
1.173,-0.8954845574658767,Cs6Ag4Sb6S16,mp-1198053
4.8031000000000015,-2.9566223017751856,Ba8B20H4O40,mp-1198110
1.4167,-0.7936337326468058,Os4Se4S12Cl16,mp-1198672
0.4092000000000002,-1.4163347190000004,Ho32Ru8Br40,mp-1200540
3.1152,-2.017365674818831,Cs4V4Se4O20,mp-1201217
2.9061,-2.545714399677083,Na4Ti4As4O20,mp-1201259
4.2446,-0.8154081670199993,Ga4H60N20Cl12,mp-1202913
4.4156,-3.334869401773544,Rb4Ti8H6F42,mp-1203838
0.003300000000000303,-0.4673244107107843,Dy16Ni80B40,mp-1204635
1.9355,-1.2306366865164289,Cs6Zr4P10S36,mp-1204981
0.6540000000000004,-1.7097194506562503,Sc8Se12,mp-1205354
1.0809000000000002,-0.9975319800000004,Zr12Si2I28,mp-1207498
5.8101,-4.1267614801357135,Y12Tl4F40,mp-1207844
2.2595999999999994,-1.88142768875,V2Cd4Bi2O12,mp-1207861
1.9586,-0.20813305333333354,W12I24,mp-1207889
0.0393,-3.4838456928766663,Sr8V8O4F40,mp-1209027
5.0367000000000015,-3.1798216625800504,Rb4Tm4P8O28,mp-1209196
3.4268,-1.3364655918229162,Sm3Al9Br36,mp-1209201
5.1545,-0.2959166574708044,Rb4Al4H16,mp-1209241
3.844,-3.146765738418233,Rb12La12B16O48,mp-1209773
3.5081,-3.1169019238292317,Nd6W2Cl6O12,mp-1209888
0.1623000000000001,-1.4545574847737068,Rb8Ce4I20,mp-1210060
4.0181,-3.289769561120909,Na4Mg2Cr2F14,mp-1210432
3.1526,-2.764286245125,Li12Sm12Te8O48,mp-1211256
6.9807000000000015,-4.320172958564286,K2Dy6F20,mp-1211612
3.2804,-2.900998959204547,La4Al4Ge8O28,mp-1211910
5.0674,-2.4821278641060003,K12Tm4Cl24,mp-1211949
3.8833,-2.4336974942631584,K8Mg8Mo12O48,mp-1212049
3.0488,-2.5156650979166657,Dy2Tl2W4O16,mp-1212931
3.5794999999999995,-2.626619516350574,Cs2Tm2Mo4O16,mp-1213346
3.0282,-3.4074474635,Gd12Lu8Ga12O48,mp-1213450
1.0856000000000003,-3.121152986093751,Ca2V2Si2O10,mp-1213869
3.3042,-1.5617397401363775,Cs8Te4H24Se4O40,mp-1215093
0.42610000000000015,-2.6770142609340657,Sr18Ca3Cr14O56,mp-1219532
2.8698,-3.062347840892111,Rb4V4Si16O42,mp-1219801
1.8692,-2.0046363972554357,Nd6Cd1Si2S14,mp-1220303
1.6583999999999994,-1.9647461299375,Nd18Ga10S42,mp-1220718
0.10449999999999983,-2.71516612925,La4Fe1Co3O12,mp-1223109
4.6602,-2.705414643888889,Zn8B32O56,mp-12233
1.3518999999999997,-1.8601206598611115,In1Sb3Pb4O13,mp-1223746
0.7221000000000002,-0.9502893833972628,In4Ag2S6Cl2,mp-1224076
1.0971,-1.8241884698489401,Cs4In1Sb1Cl12,mp-1225983
2.4336,-2.117115487294643,Dy18Al10S42,mp-1226139
1.5764,-1.12286318994319,Cs2Nb8Ag2P4S40,mp-1226881
2.2151,-1.8768879732662496,Ba2Bi2N2O10,mp-1228172
0.00240000000000018,-2.3573680187500003,Ba20Ru11Pt1O48,mp-1229136
1.5103,-2.352840201313125,Sr2Cu2S2F2,mp-12444
1.6602999999999994,-1.7064669970312505,Tm4Cu4S8,mp-12455
0.022700000000000387,-0.17278791874999952,Ho2Mg4Cu18,mp-13226
0.7218,-2.0811830111904768,Tl2P2O8,mp-13676
4.0686,-3.4251106216666662,Ta2Al2O8,mp-14333
0.5351999999999999,-2.409990028729778,Ag1Sb2F12,mp-14653
1.0044999999999995,-1.1901386940952967,Rb8Tc12S26,mp-14858
2.0532,-0.9834184526979168,K6Au2Se4,mp-15571
2.0342,-2.1910872807812503,Li1Er1S2,mp-15791
0.4162999999999997,-1.2229810283333329,Er1Sb1Pt1,mp-16329
1.5638,-0.8859437359000002,K4Hg6Ge4S16,mp-17792
4.0312,-2.6840463214123376,Sr2Fe6P8O28,mp-18215
2.4306,-2.5205095588541684,Sr2Ga8O14,mp-18253
1.2003,-1.3119079752213547,Nd6Cu2Sn2Se14,mp-18303
0.6534,-1.8773271948790908,Na8Mn4O10,mp-18869
3.7524,-2.4638702041758243,Ba1Ni2P2O8,mp-18909
2.3395,-3.14838383475,Nd4Cr4O12,mp-19269
1.5663,-1.21902142725,Ni3Te1O6,mp-19448
1.9979,-3.2336915344102626,Ba5Sm8Mn4O21,mp-19471
3.4599,-2.9398444846590905,Ba8V8O28,mp-19474
1.4893999999999998,-2.690705674549108,K8V8P8O40,mp-19517
0.9134999999999996,-1.8692153088095242,Cd2In4O8,mp-19803
1.431,-0.6278935865000002,Mg24As16,mp-1990
0.012399999999999968,-3.2935098345366667,Eu4Sn4F28,mp-21580
0.7399999999999998,-0.3372712006937602,Rb16In16Sb24,mp-21760
0.7882999999999996,-0.36001649808292263,Cs16In16Sb24,mp-21835
2.2168,-1.4817681889610277,Rb1Fe1Se2O8,mp-22038
1.3352000000000004,-1.7717352565972224,In6Ge2Pt1O9,mp-22186
0.02099999999999991,-0.17237406708333286,Sm1Cu5,mp-227
0.009699999999999598,-0.5914002587500002,Eu2Sn4Ir2,mp-22742
0.006999999999999672,-0.9527869766666668,Eu2Pt4,mp-22797
2.5771999999999995,-1.9428579636400003,Pb4Cl2O2F2,mp-23104
2.2076,-1.7024023300718178,K8Fe4H8Cl20O4,mp-24008
5.7674,-2.2453028908892056,Sr4P4H12O16,mp-24171
2.8046999999999995,-1.9566801441565915,Mn4H4S2O12,mp-24250
5.3203,-1.7030907609444452,Mg1H4Cl2O2,mp-24336
1.985,-2.563578691553572,Mo2P4O14,mp-25250
3.8879,-2.6046725130484703,Li4Fe4P12O36,mp-26003
1.7761000000000005,-2.399631646091112,In4O4F4,mp-27175
4.1981,-1.8706024911422412,Sb4S12O42,mp-27256
1.4014,-1.6683299961244826,Cs4Fe4Cl16,mp-27570
0.7507000000000001,-0.3594488687500004,K5Cu1Sb2,mp-27999
0.015199999999999882,-1.2282459879166665,Ti2Br6,mp-28214
2.2405,-0.7386471871800602,Tl32P16S48,mp-28217
3.8951,-2.696401746195,Dy2Cl6,mp-28448
0.8488000000000002,-1.0319430515182002,Cs4Ni6S8,mp-28486
5.2282,-2.348742203306,Na6Er2Cl12,mp-28542
3.4103,-1.8927955075174712,Rb2Br2F8,mp-28577
2.0078,-2.298600705972221,Ba4Bi4O10,mp-28670
3.6476,-3.310304381583334,Sr8Nb4O18,mp-28940
1.7866000000000002,-1.021502769273333,Li4N1Cl1,mp-29149
0.12990000000000013,-1.4235110128571429,Bi8Pd4O16,mp-29259
1.8355,-1.7597702874433334,Sb4Cl12F8,mp-29391
3.1727,-2.6113866734999998,Pr6Sb10O24,mp-2973
0.2574000000000001,-0.624868325793333,Sr2Li2N2,mp-29754
5.2294,-2.348471690806,Na6Ho2Cl12,mp-29836
1.4568,-1.059719376934866,Cs2Pt1Br6,mp-30062
0.7890000000000001,-1.1415516534916663,Au8F40,mp-30103
0.1853000000000007,-0.6242510533333329,Sc1Ni1Bi1,mp-30459
3.3474000000000004,-0.8396886975000002,Ga4Br12,mp-30953
1.5942000000000007,-2.0255927169642867,La8Cu4S16,mp-31273
0.5421999999999993,-1.9049198297222223,Zn2Sb4O12,mp-3188
0.8830999999999998,-1.4619451442500002,Pr16Te24,mp-32581
2.8675,-2.3443358013060003,Na3Gd1Cl6,mp-33554
0.012299999999999756,-0.9842347420220576,Ta18Fe4S12,mp-3652
0.02120000000000033,-0.4623872642857145,Yb1B6,mp-419
0.002200000000000202,-2.130183275277408,Ag4As4F28,mp-4807
2.0389000000000004,-2.711037379325,Mo4F20,mp-504759
1.9488,-2.1846619306838457,Mn2Fe2H8O4F10,mp-504945
1.3439,-2.5381018486224485,V2Hg1P4O14,mp-505236
2.6503,-2.9071165281249995,Hf4V8O28,mp-505679
1.6986,-1.4954622559105606,Rb12V4S16,mp-505721
1.3561000000000003,-1.2362249757480246,Cs2Nd2Hg2Se6,mp-510065
0.4525000000000001,-0.20971301857142827,Bi8Ru2I4,mp-541771
3.9604,-1.7911755804161105,Sb8N20F44,mp-542148
0.13639999999999966,-2.9106182282499997,Sr4Tm2Ru2O12,mp-542767
3.5429,-2.408196947417713,Rb4Sc4As8O28,mp-554223
3.0991,-3.014797282785384,K4Cr8Pb4F36,mp-554377
4.1219,-2.6919791035621428,Li16Mn8P16O56,mp-554804
4.6654,-2.864994676435132,Na15Al3P6O24F6,mp-555488
4.4001,-2.2376428614711537,K8Zn4S8O32,mp-555652
2.4648000000000003,-1.3441767674313891,Al2S2Cl14,mp-555805
3.0728,-2.38962106746,Co2F4,mp-555908
1.5006,-1.5441934238879305,Rb16Zn8O16,mp-555977
4.7506,-3.512835880682222,Na6Ti3F18,mp-556024
0.4048000000000001,-1.6762604983954152,K2Mn10Se12O36,mp-557389
3.7117,-2.2715405473824997,Pb4S2O8F4,mp-557531
2.3153,-3.035370788125001,Ba17Tm16Zn8Pt4O57,mp-557741
3.2071,-3.050222513324353,Rb12Nb12Si12O60,mp-557778
4.3598,-2.5677858990500004,K4Nd4C8O24,mp-557940
2.0236,-2.9680380222866654,K4Mn4F16,mp-558116
5.2091,-1.1353499561566671,H56Cl8O56,mp-558867
5.2363,-2.89788548875381,K4P4O8F8,mp-559062
5.0943999999999985,-3.185911439398232,Rb4Lu4P8O28,mp-559383
4.4468,-3.3695987152708353,Ba8Na8Nd8Si16O56,mp-559384
1.6318,-1.7462397564080885,K24Se8O36,mp-559613
4.3451,-3.2036226120908586,Cs2Zr4P6O24,mp-560091
2.5161,-2.4216822285642863,K8Sb4P4O24,mp-560240
4.3446,-3.2833270457959185,Ba1Zr4P6O24,mp-560308
5.2059,-2.259764285034092,K4S4O14,mp-562102
1.4655,-0.8596309392838196,Rb2Hg2Pd1Br8,mp-567515
0.13080000000000006,-0.3904921862500004,Tc4Br12,mp-568753
0.9215,-0.9700354160714282,Li4Ca40Mg4Sb36,mp-569282
0.8005,-0.7596964032844443,Ag2Au2Cl8,mp-570340
0.9584,-0.2546505566054167,Ag40Te16Cl8,mp-573465
1.1967,-0.522756804220696,K8In4P8Se32,mp-581517
3.2639,-3.1807102350722216,Na8Ti8Si8O36,mp-5996
3.6736,-1.326337806748889,Zn4H12C4N4O12,mp-604229
4.819699999999999,-3.4742419248076932,Ba4Al8Si8O32,mp-6091
1.0895,-0.2741158280000001,Te24Mo4Br12,mp-622262
5.816599999999998,-0.87554184594,H2Cl2,mp-632326
1.3716999999999997,-1.1017783418678158,Cs2Tb2Zn2Te6,mp-638078
2.5856,-0.2815111613022986,Cs6Mg2H10,mp-643895
4.595599999999999,-4.110917205789474,Lu8Hf6O24,mp-676653
2.3158000000000003,-2.329127168699999,Na8Ca4Sn8Ge12O48,mp-677095
5.5175,-1.3931077361633328,H8O4,mp-697111
3.6824,-1.4504011565785604,La2Mg3H48N12O60,mp-706447
4.3746,-2.7315562812712093,Zr4P8H8O32,mp-707540
3.1718,-1.5999779672614294,As4H4Pb16Cl16O16,mp-707734
2.0495,-2.0178844340433333,Na2Au2F8,mp-7388
0.6795999999999999,-0.7833557002941813,Rb4Se6,mp-7447
7.0014,-3.0769506852430566,Yb2B8O14,mp-752484
2.943,-0.7292002558780005,N4Cl4O12,mp-754712
2.1894,-2.2700560954166664,Ba4Te4O16,mp-754967
2.4876000000000005,-3.2234107897500004,Tb4Cr4O12,mp-756124
2.2799,-1.9024299951379304,Rb8Mg4O8,mp-756372
3.6575,-2.476307308076924,Mg6As4O16,mp-756919
2.2018,-1.8197878067500002,Na40Ga8O32,mp-7656
4.3288,-2.4425611004261114,Na6Ca3Mn1C6O18F2,mp-766470
1.7229,-3.3495422043750005,Ho12Re4O32,mp-769345
0.34640000000000004,-2.7464607036908864,Ba12Na4P4Ru4O34,mp-774691
3.4374,-2.7378779363888888,Nb8Cd4O24,mp-781861
1.6052999999999995,-0.6965850668229171,Al6In6Se18,mp-862787
0.07509999999999993,-0.8370208443750005,Pm1Tl1Te2,mp-862968
0.11180000000000057,-0.3186030327083333,Li2La1In1,mp-866193
1.4769999999999999,-1.0244808387704094,K4P4Pd4S16,mp-866637
0.1673000000000009,-0.5109829362499996,Fe4Si4,mp-871
2.5678,-2.7072839928260874,Al6Cd4Te1O12,mp-9535
0.28679999999999994,-0.3680170907068966,Rb12Al2Sb6,mp-9698
0.6841999999999997,-0.556701489416667,Na8Li4Ga4As8,mp-9722
1.4778,-0.8645836710784843,Rb4Ge2Se6,mp-9794
0.012000000000000456,-3.363212143854168,Eu4Mg2Si4O14,mp-982662
4.3089,-2.602040103497333,Na1Tl2In1F6,mp-989533
4.2919,-2.665002379714,Li1Tl2Ga1F6,mp-989577
1.81,-0.7512823794279981,Ca4Re4N12,mp-989606
1.7489,-0.7438469796666667,In2Sn2Br6,mp-998555
4.253,-3.100716983714,Mg1Tl1F3,mp-998739
3.9392,-2.384386584714,Tl1Zn1F3,mp-998745
0.4193,-3.0538307977189474,Ba4Cr4Cu2F28,mvc-13241
0.8978999999999999,-0.2723906598214283,Be2Ge2P4,mp-1013527
2.1572000000000005,-2.727202663541667,Lu1Ag1O2,mp-1018025
4.5828,-3.16078748787069,Cs16Mg8Si40O96,mp-1019610
5.5903,-2.7617590523432547,K8Li12B4P16O56,mp-1019778
3.5941,-1.324594172592628,Li14P2N6O3,mp-1020011
4.1347000000000005,-3.182071011214979,Rb4Ca4Si6O18,mp-1020641
1.9189000000000005,-1.2194410482812503,Li2Si1Sn1S4,mp-1021497
0.20690000000000008,-0.4896138894117645,Ce1As12Ru4,mp-1021508
1.6299,-2.295992836493056,Sm2Fe2Se2O3,mp-1079176
0.08729999999999992,-0.7901610007812505,Zn1Cu2Sn1S4,mp-1079541
1.6985,-1.1924378168160714,Na2Yb2P4S12,mp-10838
0.3870999999999993,-1.5098598895312498,La4Sb4Se4,mp-1101891
2.147,-1.4067883744980243,Cs2Dy2Zn2Se6,mp-1102146
1.4493,-1.5330050912413196,Ba2Er2Ag2Se6,mp-1102849
2.4848,-0.9006300083426727,Cs4Au6S5,mp-1104686
5.3413,-4.024071907952002,Zr4F16,mp-1105223
1.188,-0.6004075579765326,Cs4Hg6Se8,mp-1106156
5.0434,-2.4801508091973794,Cs2Li1Tb1Cl6,mp-1112669
5.2527,-2.481637521197379,Cs2Li1Tm1Cl6,mp-1112998
0.3208000000000002,-2.439059968197379,Cs2Li1Ce1Cl6,mp-1113020
0.9190999999999998,-1.9639070392812503,K2Nd4Cu2S8,mp-11603
0.7088999999999999,-0.467443215030909,La4Mg8H28Pd4,mp-1180682
0.1368999999999998,-0.01546629666666661,Hf1Mg149,mp-1185513
0.6118000000000006,-0.7214769765000001,Lu6Sb8Au6,mp-1189199
0.3552,-1.7891425604017854,Dy8P8S8,mp-1192185
4.7738,-3.3407585426229995,Na5Dy4Si4O16F1,mp-1192543
0.18240000000000034,-0.3670747512500003,Y16In6Co2,mp-1192970
3.3553,-3.172975737265625,Ta8Pb2O22,mp-1194594
3.5074,-2.5167853223684777,Cs6Zn12B18O42,mp-1195000
0.141,-1.1490198020657465,Ce4Tl4P8S28,mp-1195336
1.4321,-2.8710643927760917,Rb4Fe8F24,mp-1195892
5.5247,-2.1185027428807883,Cs4P8H20O32,mp-1195974
3.0068,-3.0768623240476187,Mg20Nb4B12O48,mp-1196847
6.4703,-3.3512402599666675,K20Li8Pr4F40,mp-1196988
3.3631,-2.266739374714286,Na12Al4As8O32,mp-1197957
0.07820000000000005,-2.529299593912037,Nd18C18O72,mp-1198371
3.0471000000000004,-0.824810040438571,Sn8H48C8N24Cl24,mp-1199443
1.5609,-0.4892253072078085,K8In8P12Se40,mp-1199715
3.7124,-2.798780371547619,Ca8Zn12Si12Pb4O48,mp-1200437
4.752,-3.7501279766289755,Dy16B4Cl4O28,mp-1201047
5.04,-2.9321926069162507,Sr6B12H4O26,mp-1201690
1.1976,-1.9355614979327505,Ag6Sb6Se12F36,mp-1202255
0.6235,-1.4402407000347623,Mg4H64Ru4Cl20O34,mp-1203438
2.9751,-1.4882853470822532,Sn21H14Cl16O20,mp-1203896
3.9887,-2.439668934068069,Cs12Sc4Cl24,mp-1203917
1.3360000000000003,-0.8087240334759997,Mg3As1N1,mp-1206514
1.7846999999999995,-1.6562439008854168,Y8Ag8S16,mp-1207671
3.1131,-2.603641288987068,Rb4Gd4Mo8O32,mp-1209393
3.1362,-2.364772051388889,Pr2Ag2W4O16,mp-1209684
4.488,-2.8639248767157137,Na1Be2Tl3F8,mp-1210101
1.962,-2.029915389625,Na8Re4O12,mp-1210286
1.9764,-2.658867992139,Na12Li12Rh8F48,mp-1210682
1.3983999999999996,-1.035361304047619,Li4Ca4P4,mp-1211088
0.04629999999999957,-0.30695387392156864,La8Mg6Ag20,mp-1211389
4.812799999999998,-2.5358563965375,K8Sm4Cl20,mp-1211774
2.818,-2.1709408741000003,K8Co2Mo6O24,mp-1211822
4.2903,-3.4222567171607143,K4Sr24Sc4Si16O64,mp-1211967
0.9471,-2.1181522247230418,Lu4Nb24Cl52O12,mp-1211982
0.01869999999999994,-1.2734444007142849,Ho4P4Pd4,mp-1212072
4.758,-2.6631399480172413,Cs1Tm1W2O8,mp-1213213
0.014700000000000381,-0.29975321641509445,Er12Ta8Al86,mp-1213424
0.00509999999999966,-0.5037419545454553,Er12Ga60Ru16,mp-1213476
4.788,-3.45436127382619,Ba8In8F40,mp-1214395
2.9106,-1.0693924627272724,Al4Cd2Br16,mp-1214910
2.6832,-1.9453505541666667,Tl2Sb2W2O12,mp-1216623
0.6945999999999994,-2.596735047916667,Sr6Fe4Mo2O18,mp-1218650
1.5621,-2.539660775942,Sc2Mn4Sb2O12,mp-1219325
2.0219,-2.6326243265883464,Si4P6Rh2O26,mp-1219334
2.81,-2.3873830091666672,Nb2Tl2W2O12,mp-1220301
2.4267,-2.720203010051589,Na2Nb2Fe2P6O24,mp-1221032
4.4903,-3.95533657321,Na3Gd3F12,mp-1221034
1.0307999999999995,-0.7656111649600005,Li2Ca4Cu2N4,mp-1222411
1.9069,-1.8162531474999997,Li5Au1O4,mp-1222442
2.7183,-2.163768112833333,K2Sb2W2O12,mp-1223347
2.1937999999999995,-2.0166370375,Ho16Pb8S32,mp-1224555
1.5309,-1.6790569218421056,Fe4Te4Pb6O24,mp-1225390
2.8733,-3.3608635432500003,Ba3Mg1Ta1Nb1O9,mp-1228058
0.6052999999999997,-0.09626744908333293,Al6B2C2,mp-1228446
2.4088,-2.8176969443055566,Ba10Sr2La4Fe8O30,mp-1228552
0.4338000000000001,-1.4653709520249656,Rb2Cu2Cl6,mp-1232302
1.3651,-1.1050453739511497,Cs2Nd2Zn2Te6,mp-12342
1.6113,-1.7093923432812508,Ho4Cu4S8,mp-12453
1.1627,-2.8830726016266666,Sr2Pd2F8,mp-12622
3.7028,-3.12142861625,Sr4Y2Sb2O12,mp-12878
1.9585,-2.4175102090175,Zn1Pb1F6,mp-13610
2.5506,-2.6723125375,Sm1Cu1O2,mp-13695
0.3622000000000005,-0.7404190064062508,Cd2Cu4Ge2S8,mp-13982
4.9153,-3.052463892020409,Na12Ca12P12O48,mp-14401
1.0266,-0.8584125740052082,K4V2Ag2Se8,mp-14634
2.6516,-2.19178544104064,Rb6Al2O6,mp-14951
3.2917999999999994,-3.0459800423561902,Cs16Mn8Si40O96,mp-15126
0.00969999999999871,-0.3883484600000002,Sn16Pd8,mp-1573
5.1525,-3.2800579011562503,K2Li6Zr4Si24O60,mp-16055
2.3891,-2.4860490745312505,Ca1S1,mp-1672
3.5938,-2.887310122785714,Na4Tb4Ge4O16,mp-16927
1.8812999999999995,-0.6667191829999999,Na12Si4Te12,mp-17291
3.6473,-2.8804678920714286,Na4Y4Ge4O16,mp-17394
3.0743,-3.4949263503571437,Ba4Pr8O16,mp-17412
2.3384,-2.9100228512033337,Gd4Pt4F28,mp-17500
1.3574999999999997,-2.3891239501785715,Sr4Sc8S16,mp-17678
1.4688,-1.6717297600000005,Yb1Te1,mp-1779
1.8718,-0.7762941294140635,Tl6B6S20,mp-17823
0.2612000000000001,-1.3984640060169695,Ag2Au4F16,mp-18125
2.4941000000000004,-2.043336350889309,Cs4Mo6Se2O24,mp-18353
2.6013,-3.3400804223242195,Nd8Si4Se4O16,mp-18466
3.8497,-2.6490612575941554,K4Mo4P8O28,mp-18497
2.4407,-3.0407018274867736,Li2Ti4P6O24,mp-18640
3.9789999999999996,-2.7945863515000005,K4Ba4V4O16,mp-18892
0.07419999999999982,-2.441055271750001,Tm4Ni4O12,mp-19002
2.2239,-2.3924524662162168,Mg3V6Fe4O24,mp-19067
2.026,-2.146357838537999,Mn6W2O12,mp-19158
0.0058000000000006935,-0.853540863333333,Gd3Al3Pd3,mp-20058
2.4058,-2.9323209691375,Mn1Sn1F6,mp-20096
0.007600000000000051,-0.4950950570138879,Gd1Ni2B2C1,mp-20728
0.3358000000000008,-0.5550144328645832,Ge4Pt4Se4,mp-20817
0.01560000000000006,-1.85180867119,Tb1N1,mp-2117
0.038399999999999324,-0.31658574500000114,Gd1Ni5,mp-21305
0.000600000000000378,-0.5422505529166672,Eu2In4Rh2,mp-21487
0.6879000000000004,-1.556054896989583,Pr12In4Se24,mp-21575
0.7671999999999999,-0.25937155915625,Sb8Se12,mp-2160
0.9908,-2.0945738845208326,Sm12In4S24,mp-21604
0.7807999999999997,-0.42130891948809535,K16In16As24,mp-21741
1.4991,-2.2109550232589292,V4S4O20,mp-22092
2.7247000000000003,-2.114053946700001,Na2Fe2Ge4O12,mp-22614
3.7001,-1.33661331865,Na4I4O12,mp-22989
5.126099999999999,-2.3096404791973795,Cs2Mg2Cl6,mp-23004