band_gap,formation_energy_per_atom,full_formula,task_id
0.0,-0.4985936284920645,Mn3Fe9P6,mp-1221737
0.0,-0.5650517483333335,Lu2Ga3Cu1,mp-1222365
0.0,-1.0179341342857147,La8Sn2Sb4,mp-1223181
0.0,-0.44590423666666607,Hf2Al3Cu1,mp-1223820
0.0,-0.5199420587499999,Co1Si4Ni3,mp-1226011
0.0,-0.5698541784920627,Co3Ni3P3,mp-1226037
3.452,-1.693849529959157,Cs6H2Se4O16,mp-1226195
0.0,-0.7440708349999999,Ce4Co1Si6Au1,mp-1226941
3.4943999999999997,-2.7603790918219047,Ca10As6Cl2O24,mp-1227203
3.9174999999999995,-2.4922358651666667,Ca3Mg2Fe1C6O18,mp-1227854
0.0,-0.8989503441666665,La3Sn3Rh3,mp-12378
0.0,-2.30604271453125,Ho1S1,mp-1240
0.0,-2.78575830325,Ba2Tb1Ir1O6,mp-12410
0.0,-0.8834235350000004,Er10Sb6,mp-12960
0.0,-0.5660376375000004,Ce1Zn3Pd2,mp-13118
0.0,-0.5120168136363645,Mg2Si14Ir6,mp-13241
0.49880000000000013,-1.87814309615625,Pr2Lu2Se6,mp-13326
0.0,-0.6978630938888881,Ho3In3Ir3,mp-13525
2.3609999999999998,-1.4234679558928574,Ba8Zn8Sn8S32,mp-13593
3.8622999999999994,-3.3384315499218755,Ba18Lu6B18O54,mp-14386
0.0,-3.3372634245556667,Na12Li12Ti8F48,mp-14457
4.0883,-3.1354530777639993,Na12Li12Cr8F48,mp-14458
3.2731000000000003,-3.619014339296876,Ba3Er4O9,mp-14853
4.826700000000001,-3.631006471250001,Nd16Si16O56,mp-15225
0.0,-0.2913594033333335,Te6Ir3,mp-1551
0.0,-0.20481694729166655,Re6B2,mp-15671
0.0,-0.4063622142857142,Ba12Si16,mp-1619
0.0,-0.5293589483333333,Ca2Zn2Ge2,mp-16263
3.8415,-3.04669031039,K2Na4Li6Cr4Si24O60,mp-16282
0.0,-0.4953786338888892,Ti2Al2Au2,mp-16481
1.9568999999999999,-1.0613002919288799,Rb8S20,mp-16911
0.0,-1.754752743520408,Cu8P4O16,mp-17281
0.0,-0.7495466633333346,Zr8Fe8Si14,mp-17435
2.2323,-3.201164611388888,Sm8Mo4O24,mp-17591
3.0065999999999997,-2.54756397862245,Co4Si2P8O28,mp-17775
1.1999,-0.9739533926286775,Nb4Tl8S22,mp-17803
0.0,-0.41208000954545426,Nd4Zn6Ge12,mp-17935
0.0,-0.9259299695833336,Ti4As4,mp-1822
0.0,-0.4503125566666662,Sr1Au5,mp-1831
2.0223999999999998,-1.7681157364729545,Ni4Hg4S2F12,mp-18626
0.0,-1.8439576414285719,Fe6O8,mp-19306
0.0,-0.3019101199999996,Nb1Ga3,mp-1973
0.0,-0.8174021333333338,Gd2Si2Ru2,mp-19875
0.0,-0.6910908855000002,La1Ge2Ru2,mp-19900
4.114299999999999,-3.2949569176041678,La4Be4Ge2O14,mp-19926
0.0,-2.534178729461207,Rb1Eu1O2,mp-20277
0.0,-1.3181926820507697,Yb2Eu2Si8N14,mp-20295
0.0,-0.5616376594999999,La1Cu2Ge2,mp-20322
0.0,-0.3613092233333326,In1Pt3,mp-20516
1.9099000000000002,-2.4675718671424995,Pb4F12,mp-20652
0.012600000000000833,-0.6677802016666661,Eu2B4Ir4,mp-20976
0.0,-0.803328402999999,Hf6Si4,mp-2105
0.0,-0.9225925749999995,Ho4Ge4Ir4,mp-21073
0.0,-0.7712063395833333,La1Ga3Pd2,mp-21201
0.009699999999999598,-0.21670029624999998,Co4Ge4,mp-21237
0.0,-0.18848407541666656,Ti1Zn3,mp-21289
0.0,-0.0744326441666665,Te8Os4,mp-2142
0.0,-0.46110907059523853,La1In5Rh1,mp-21479
2.8970000000000002,-2.007127390833334,Mo2Pb2O8,mp-22169
0.0,-0.6711645241666666,Tb4Ni4Sn4,mp-22299
2.1289,-1.9128569377777775,Bi8Mo4O24,mp-23064
2.6818,-0.06390931666666688,B2I6,mp-23189
0.0,-0.8236265714285713,Yb8Bi6,mp-23310
2.5465999999999998,-0.3094829602409651,Rb6Mg6H18,mp-23738
1.9201000000000001,-0.3834039168577779,Mg2Fe1H6,mp-23804
0.0,-0.789475310746667,Ho1H2,mp-24152
5.288,-2.1835740760156583,Y8H24S24O96,mp-24656
0.0,-0.5840987379688892,Ti1H2,mp-24726
0.0,-0.6397860016666664,Pr2Rh4,mp-2529
0.0,-0.4876159900000007,Zr2Pd1,mp-266
0.0,-0.4932080174418604,Si12Ni31,mp-27276
5.326,-2.873252871464286,Sr4P12O34,mp-27583
1.0693,-2.8065136232290913,K8Re4F32,mp-27595
0.9695999999999998,-0.9491672973214287,Tl8O6,mp-27684
5.1593,-3.040980420659723,Ba8B32O56,mp-27692
5.4674,-0.9513197442077781,H12Cl4O20,mp-27694
0.43679999999999986,-0.41551168881250006,Bi2Te2S1,mp-27910
0.9033,-0.49717213354687484,Na4Au4Se8,mp-29139
3.0667,-1.9499863677913531,Te16P8O52,mp-29215
0.0,-0.6992138470833331,Er1In1Au2,mp-30376
0.0,-0.5338365033333332,Ce2Al8Ni2,mp-30750
0.0,-0.2472241050000008,Mo2Rh6,mp-30787
0.0,-0.5665188696666668,Ho2Ni4B4,mp-31009
2.2099,-0.491021379220171,Na16B36Se36,mp-31229
0.0,-0.7764177562500008,Er2Co2Si4,mp-3128
0.0,-0.8063648573333339,Dy1B1Rh3,mp-3183
0.0,-0.9065993404545455,Ho3Ge4Pd4,mp-3354
1.9966,-2.788173929083334,Nd16Au8O36,mp-3374
0.0,-1.7698719514375008,Ba2V2S6,mp-3451
0.0,-1.5596810592059254,Ce3B2N4,mp-3603
0.0,-0.2642940292307696,Li1Co6Ge6,mp-4107
0.0,-0.7125879937499997,Tb2Ni2Ge4,mp-4288
0.0,-0.6708128633333329,Ho2Si2Cu2,mp-4476
5.2326999999999995,-2.8549905482857154,Er4P20O56,mp-4871
0.0,-4.08816174746,Eu1F2,mp-504731
1.8406000000000002,-3.205539083194446,Ba4Ho8Co4O20,mp-505037
0.0,-0.419294964519608,Na6B10Pt18,mp-505055
0.0,-0.8033048111111114,Tb8Ti12Si16,mp-510083
0.0,-0.7472211761111112,Sc8Cr4B24,mp-510306
0.0,-1.59455254607143,Gd1P1,mp-510401
2.6457,-1.6498669912227781,As6Pb10Cl2O18,mp-510724
0.09649999999999981,-1.83602139775641,Ba16Nb14S48,mp-531036
0.0,-0.1554078462272728,Na32Hg12,mp-541787
0.0,-0.4347673062962972,Tb3Ni13B2,mp-541883
3.8976999999999995,-2.2302504844944204,Na6P2S2O6,mp-542136
0.0,-0.30665510333333224,Gd1Ag1,mp-542779
0.2862,-3.338968650017284,Hf6Cd6Ag2F40,mp-554342
3.6644000000000005,-2.2767255040096535,Na8Ni10P12O44,mp-554790
1.8998000000000004,-1.8029846872500002,Cd4Ge4Bi8O24,mp-555027
2.3434,-2.6463194542419837,Na24Fe16P16O64F24,mp-556871
1.8334000000000001,-1.072258056935037,Rb2P2S6,mp-556953
0.0,-3.178034165892501,Nb1V1F6,mp-557023
3.9523,-3.1091138969053786,Cs4Na2Cr2F12,mp-557047
0.0,-2.5014619522499997,Sr12Ca4Ru8O36,mp-557111
2.8897,-2.947276934351853,Sc6Te3O18,mp-557773
2.2169999999999996,-2.5997227816833326,Na8Sr4V12O36,mp-557927
2.7975999999999996,-3.551548315885416,Ba4Ti8O20,mp-558159
2.1572,-1.685515688611111,Li2Mo2I2O12,mp-558917
3.6786999999999996,-2.0823637191566675,Ga4Te4O12F4,mp-558984
3.3053999999999997,-2.8719229509375013,Ba2Zn4Si4O14,mp-560441
4.5279,-2.6290235079213793,Rb2Ni1F4,mp-561317
2.7184,-1.901346543083612,Tc4S4O24F4,mp-561392
0.0,-0.5957836640972225,Sm1B2Rh2C1,mp-567077
0.0,-0.8571531075000007,Nd3Sn3Rh3,mp-567214
0.0,-0.6034269459999997,Tb4Co4I2,mp-567614
0.0,-0.23718102657894735,Tb2Zn17,mp-568012
0.0,-0.5803452681249999,La4Mg4Si8,mp-568173
0.0,-0.7309985159999997,Ce1Co2As2,mp-568182
0.0,-0.9809316572586871,Tb16Ni36P22,mp-568617
0.0,-0.9745929499038467,Ca56Mn4Sb44,mp-568798
0.0,-0.46278917714285733,Mg6Si16Ir6,mp-569313
0.0,-0.8800197445454553,La8Al10Br4,mp-569398
0.0,-0.31705195062500025,Pr10Tl6,mp-570469
0.0,-0.8282686344444445,Yb12Ge12Au12,mp-570711
0.0,-0.6717376819999998,Lu1Fe2Si2,mp-571098
0.0,-0.06643088166666722,Tl4Pt2,mp-571160
0.0,-0.6991200735000007,Nd1Si2Os2,mp-571586
0.0,-0.4945042134090914,Sm6Al4Ni12,mp-573541
0.0,-0.2024850899999997,Gd1Cu1,mp-614455
0.0,-0.7040711886111115,Ca4In4Pd4,mp-620571
0.0,-0.8261051049999999,Gd1Au1,mp-635426
1.5030999999999994,-1.2079741477839119,Cs4Nb8P4S40,mp-641699
0.0,-0.686615427999999,Gd1Ni2Ge2,mp-646399
7.3100000000000005,-3.8975115335711115,Sr2Li2Al2F12,mp-6591
0.7030000000000003,-0.34379560739583326,Sn1Se2,mp-665
4.484100000000001,-3.142195822425001,K16Mg8Si40O96,mp-667292
0.0,-0.2754932087037034,Ba8Cu6Ge40,mp-669542
0.0,-0.15728366714285716,Sr2Zn26,mp-672707
0.8944999999999999,-1.4669963605765217,Sm16Cr2Te26Cl2,mp-680161
0.0,-0.30280754599999965,Sr6Rh8Pb26,mp-680654
4.5905,-2.775110764043859,Na24Mg8B40O80,mp-683990
0.0,-0.40052039078399987,Ce4Mg8H28,mp-697677
4.4925,-2.0866217655331036,Zr2Cd4H24O12F16,mp-707940
0.0,-0.768581489583334,Ti4Si4,mp-7092
0.0,-0.32107325249999974,Tb1Cd1,mp-721
0.0,-1.1841221056547626,Ti4P4,mp-739
0.2762,-0.47630243599999983,K2Zn2As2,mp-7421
0.6380000000000003,-1.8264988855357143,Yb4Sb2O1,mp-753192
0.0,-1.5867758899999995,Sb2Rh2O8,mp-754757
4.0427,-1.6789847710255865,Cs4H12C2O12,mp-758948
0.0,-1.4559190696822224,Ag2F4,mp-7715
0.0,-2.3857514206418915,Ba20Li4Bi8O42,mp-774832
1.4999999999999996,-2.4294998060714295,Li4V6W2O16,mp-775204
3.7672999999999996,-1.499137157920687,Cs4Zn2H24Se4O28,mp-779742
0.0,-0.3083481199999998,Sr1Cd2Ge2,mp-7881
0.0,-1.3698067613541671,Hf2Si2S2,mp-7916
0.0,-0.3261490699999996,Sc2Tc1Ni1,mp-862424
0.0,-0.2106756812499997,Sc2Cd1Tc1,mp-862710
0.0,-0.3758405245833334,Sc2Cd1In1,mp-862711
0.0,-0.38387177500000025,Er2Cu1Ru1,mp-862944
0.0,-0.2724045362500003,Eu1Cd3,mp-864634
1.7719999999999998,-1.8938547460503479,Nd6Si2Ag2S14,mp-864666
0.0,-0.14345080999999915,Mn6Ir2,mp-864735
0.0,-0.39340622375,Eu1Cd1Hg2,mp-864796
0.0,-0.36033437750000097,Zr2Co1Tc1,mp-864896
0.0,-0.23653015249999942,Lu2Mg1Al1,mp-865238
0.0,-0.4380123099999995,Nb1Al1Os2,mp-865278
0.0,-0.760263216666667,Ti1Al1Pd2,mp-865441
0.0,-0.6024576525,Lu1Rh2Pb1,mp-865443
0.0,-0.7369090875,Li1Sc2Pt1,mp-865444
0.0,-0.7987900375000004,Sm2Si2Ru2,mp-8655
0.0,-0.46928148249999957,Yb2Cu1Rh1,mp-865854
0.0,-0.7873277924999997,Lu1Mg1Au2,mp-865861
0.0,-0.4299012091666672,Ti1Be1Co2,mp-866152
0.0,-0.19554360324999998,K1Tl2Bi1,mp-866169
0.0,-0.2613541493749998,Li2Nd1Tl1,mp-866179
0.0,-0.3237473287499997,Li2Yb1Si1,mp-866191
0.0,-0.36011166124999994,Li2Pr1Pb1,mp-866197
0.0,-0.3776193975000002,Ta1Be1Ru2,mp-867114
0.0,-0.4981206216666667,Ta1Ti1Os2,mp-867123
0.0,-0.5848388697916662,Sm1Ag1Au2,mp-867254
0.0,-1.2196249424999994,Sc1Pt1,mp-892
2.9917000000000002,-0.6285775328469395,Cd4P6S1N12,mp-8921
5.9638,-3.542835985347693,Li16Zr4F32,mp-9308
0.0,-0.5287793733333344,Zr6Fe1Te2,mp-9381
0.0,-2.0919171778571433,Dy2Cu4O8,mp-9420
0.0,-2.8562538935,Nd2Bi1O2,mp-973451
0.0,-0.5979740573611115,Lu4B16Os4,mp-973529
0.0,-0.3078579384615381,Gd1Al8Cu4,mp-973553
0.0,-0.9399328150000006,Ba1As1Pd1,mp-9744
0.040700000000000014,0.0,Hg2,mp-975272
1.7285000000000001,-1.4642846202941178,Tl8Cr12O48,mp-9754
0.0,-0.21856954249999916,Ta3Ru1,mp-977390
0.0,-0.8064893949999998,Tb1Ga1Rh2,mp-977421
0.0,-0.5539274912962971,Tb2B8Ir8,mp-978921
0.0,-0.26233584249999886,Ta2Nb1Rh1,mp-979288
0.0,-0.7432654249999994,Hf4Si2,mp-9938
0.0,-0.8354511999999996,Sc2Si2,mp-9969
0.0,-0.83803681875,Sm2Au2,mp-999193
2.2855999999999996,-2.1760719581562507,Na1Dy1S2,mp-999490
0.0,-0.5979109808333346,Sm2Fe2Si2,mp-1019100
0.0,-0.8383282800000001,Tb2Ge2Au2,mp-1019278
6.384399999999999,-2.252493250607639,Li4B4S8O32,mp-1020106
0.0,-0.009105985769229856,Li1C12,mp-1021323
0.0,-0.3688680058333329,Ho1Cu4Pd1,mp-1025134
0.0,-0.8711930487500004,Ce1Al2Pd5,mp-1025445
1.8995000000000006,-0.5844294391066663,Nb4Zn8N12,mp-1029422
0.28049999999999997,-0.6517844060199991,Ba6Ga2N6,mp-1029573
0.0019999999999997797,-0.818630283452,Ca8Sn4N8,mp-1029915
0.0,-0.468821431666667,Eu1In1,mp-1058490
0.0,-0.7226348428571434,Eu1Zn2P2,mp-1069383
0.0,-0.41394472666666715,Lu1Ni4Au1,mp-1072381
0.0,-0.2810782769444439,Nd2Ag4,mp-1072737
1.9547000000000003,-0.9523980745312501,Ta1Cu3S4,mp-10748
0.0,-2.3597345285239997,Sr8Mn1Fe7O24,mp-1076445
0.0,-0.9260727483333339,Gd1Bi1Pd1,mp-1076916
0.0,-0.5368714833333333,Tm2Sn4,mp-1077102
0.0,-0.5310284366666664,Ce4Bi2,mp-1077367
0.0,-0.7887960889999995,Ca4Ge2Pd4,mp-1078326
0.0,-0.5060562446874997,Nb4Ge2C2,mp-1078811
0.0,-0.4999963491666666,Ce2Si4Ag2,mp-1080480
0.0,-1.089644835,Y2Si4Pt4,mp-1080646
0.0,-0.5200825496875012,V4Ga2C2,mp-1080835
0.0,-0.9306459599999997,Ce2As4Rh4,mp-1087498
0.0,-0.8239274184759993,Ce3Al1N1,mp-10881
1.8862999999999999,-2.2320877892129634,Ga4Fe8B4O20,mp-1097025
0.0,-0.24488779850000006,K4Sn8,mp-1103373
0.0,-0.7178969657142845,Lu6Ge8,mp-1104514
0.0,-0.07893112730769211,Ta6Zn7,mp-1105040
0.0,-0.575573866250001,Dy12Ir4,mp-1105615
0.0,-0.343798289605264,Sm1Co12B6,mp-1105798
0.0,-0.7072907372222232,Zr10Si2Sn6,mp-1106020
0.0,-0.5958776599999993,Hf3Co9B6,mp-1106407
0.0,-0.1966140529999997,La4Mg2Cu4,mp-11086
2.1843,-2.6759456269553796,Cs2In1Ag1F6,mp-1113588
0.0,-0.21892829857142868,Sr2Si8Cu18,mp-11142
0.0,-0.30944246083333365,Be8W4,mp-11282
0.0,-0.5196279950000005,Ca2Ga4,mp-11284
0.0,-0.41075321750000054,Zr1Zn1Ni4,mp-11533
0.0,-0.34497026999999986,Sc4Re8,mp-11557
0.0,-0.5897578091071439,La2Si8Ni18,mp-11726
0.5535999999999999,-2.242908901468833,Rb2W6O18,mp-1179800
3.3396,-1.5530685558001707,Rb8Te4H24Se4O40,mp-1179820
0.0,-0.368163806250001,Dy1Er1Ru2,mp-1183783
0.0,-0.7795498960000004,Ce4Si10Ni6,mp-1183797
0.0,-0.2079394212500001,Li1Cd1Hg2,mp-1185207
0.0,-0.5624091312499999,La1Pm1Ga2,mp-1185601
0.0,-0.40178865937499997,Nd2Hg6,mp-1186314
0.0,-0.10669169812500012,Pm6Cd2,mp-1186498
0.0,-0.3004056959821435,Pm1P3,mp-1186622
0.0,-0.2497576018750003,Ta2Cr1Re1,mp-1186772
0.0,-0.001952668749998665,Re1Tc1,mp-1186915
0.0,-0.23492592937499968,Yb1Pm1Cu2,mp-1187538
0.0,-0.8946620168750004,Yb1Nd1Au2,mp-1187627
0.0,-0.4399442716666666,Y2Ag1Hg1,mp-1187701
0.0,-0.8100209237499993,Yb2Ge1Au1,mp-1187891
0.0,-0.08346544333333342,Ti4Cu16,mp-1188441
3.6563,-3.148401605250001,Ca4Sc2Sb2O12,mp-1189528
0.14139999999999997,-0.3496210183333333,Er16In6Co2,mp-1190234
0.0,-0.5478861431818184,Sr4Zn6Au12,mp-1190711
0.0,-0.5718790368181821,Er6Ga4Ni12,mp-1190853
2.2953,-2.2553765359114593,La6Mg2Al2S14,mp-1190945
0.0,-2.639466476700001,Na2Pr4Ir2O12,mp-11913
0.0,-0.6423158188095242,Pr2Fe12P7,mp-1191863
2.0000999999999998,-0.9623347400080826,Rb4Ta2Cu2Se8,mp-11924
0.0,-0.13167469892857245,Zr18Ni2Mo8,mp-1193397
0.0,-0.34320824869047534,Hf18Re8B2,mp-1193562
0.0,-0.32920837071428555,Mn4P24W2,mp-1193594
0.0,-0.3768575586206894,Er6Al7Cu16,mp-1193693
0.0,-0.36896183620689665,Dy6Al7Cu16,mp-1194170
2.2459,-1.9415194025959999,Mn4Pb8W4O24,mp-1194656
1.9320999999999997,-0.8367856777010004,Sr16P56Cl8,mp-1194705
2.2163000000000004,-1.8366093229829554,Co8Bi16S8O56,mp-1195268
0.7204999999999995,-1.6952053456835943,Pr8Zr4Se20,mp-1195609
0.0,-0.13953467956521778,Yb2Al40Cr4,mp-1195753
0.0,-0.7053148573809518,Er22Sn20,mp-1196703
0.0,-0.4990786643749992,Nd6Sn26Ir8,mp-1197860
5.1028,-3.180924826067512,Cs4Er4P8O28,mp-1198204
0.0,-0.4182938776388888,Y7Co6Sn23,mp-1198642
4.4843,-2.919074104116251,Ca8Al12H12O32,mp-1198782
0.02660000000000018,-0.12225666643589779,K6Na14Mg1Tl18,mp-1198979
0.0,-0.07356557249999973,Ho1Mg1,mp-1199
0.0,-0.02262729710526245,Yb4Co34,mp-1199900
0.0,-0.7036086988888886,Ce20Ge16,mp-1200696
0.0,-0.8109398988888883,Sc8Nb12Si16,mp-1200765
0.0,-0.6736979538888888,Ho8B24Os4,mp-1200778
1.8631,-0.44877512832178806,Cs4Hg2B18Se18,mp-1202194
0.0,-0.5656907655357144,Li4Cu2P2,mp-12029
0.05860000000000021,-2.0310376262829175,K4Ti16Cl44,mp-1203502
0.0,-0.08175426891304359,Ce2Cd40Ni4,mp-1203677
0.0,-0.2720424388679253,Ho12Al86W8,mp-1204202
0.0,-0.8321917190277782,Ho5Zr3Ni16As12,mp-1205128
0.0,-0.46888802425000053,La2Si2Os4C2,mp-1205718
0.0,-0.5885331989999998,Y4Co4I2,mp-1205726
0.0,-0.531227665555555,Lu6Mn1Sb2,mp-1206042
0.0,-2.2378693360124995,Mn1Cu1F6,mp-1206085
0.0,-0.5739853825000001,Pr2Al4Ni2,mp-1206143
0.0,-0.35485053388888943,Lu2In4,mp-1206287
0.0,-0.4333812384523808,Sm1In5Rh1,mp-1206468
0.0,-2.1283279184689397,Cs2Ag1F6,mp-1206546
0.0,-2.006159573474965,Rb2Na1V1Cl6,mp-1206768
0.0,-0.6053351733333324,Lu3Ga5Co1,mp-1206831
0.0,-0.6641211860714284,Yb4Ga18Rh6,mp-1207626
0.0,-0.5253521467499993,Tm2Mn4Si2C2,mp-1207684
2.0185999999999997,-1.7878639990104173,Tl2S2O8,mp-1208021
0.0,-0.1708809402173911,Zn122Pd16,mp-1208176
6.0659,-3.125778208284313,Tb4Mg4B20O40,mp-1208392
0.02889999999999926,-0.38226076750000004,Ta8Ni12Te20,mp-1208475
5.1444,-3.604278647187501,Tb4Be4Si2O14,mp-1208515
0.0,-0.6837959848333327,Sc4Cu2B4Ir10,mp-1209000
5.8027999999999995,-3.0405716028931398,Rb8Be12Ni8F48,mp-1209719
0.0,-0.9334942463888886,Nd6Hf2Sb10,mp-1209861
0.0,-0.44449890279411747,Pr46Cd8Ir14,mp-1210287
0.0,-0.5615103006249997,Lu10Ni4Sb2,mp-1210754
3.7164999999999995,-3.093196574130437,La3Hf1Ga5O14,mp-1211281
0.0,-0.5091695930769224,Ho2Al20Ru4,mp-1212388
0.0,-0.6536267844444441,Dy3Al9Ni6,mp-1212853
3.4110999999999994,-2.656083028433907,Cs2Tb2W4O16,mp-1213324
0.0,-0.6285174334586475,Eu4Ni24P10,mp-1213550
0.0,-2.59026039325,Ba6Zr2Ir4O18,mp-1214509
0.0,-1.3531249027976193,Ta2In1S4,mp-1218110
0.0,-2.3997131617968757,Sr2Pr2Tl1Ni2O9,mp-1218716
0.0,-0.46000182089285807,Sm1Gd1B12,mp-1218985
0.0,-0.3755830800000002,Si1Ni6Ge1,mp-1219193
0.0,-0.5237292948333334,Sc2Nb4B4Ru10,mp-1219294
0.0,-0.09769525921775192,Rb8Hg3Ge43,mp-1219674
0.0,-0.4076005700000008,Nb1Al2Ni9,mp-1220476
0.0,-0.15749835666666692,Nb4V4Co4,mp-1220522
0.0,-0.46721501550000044,La1Mn1Fe1Ge2,mp-1223046
0.0,-0.5661698860000002,Eu1Co2Si1Ge1,mp-1225172
0.0,-0.5617202919444451,Er3Ga6Ni9,mp-1225816
0.0,-0.5340909057142854,Co7Ni1P4,mp-1226111
0.0,-0.27620511594339614,Er12Al82Cr12,mp-1226597
0.0,-0.2942294324999999,Ca2Tl3Pb3,mp-1227788
0.0,-0.45385955875000006,Ba3Sr1Sn12,mp-1228128
0.0,-0.7079399215250004,Ba4Cu11Te8S2,mp-1228217
0.0,-0.15896980343749956,Al1Cr4Ga1C2,mp-1228967
0.0,-0.7524311799999992,Ho6Pd4,mp-12544
0.0008999999999996788,-0.222305336428571,Ce4Cu20Au4,mp-12562
0.0,-0.5415473456250002,La2Mg4Pd2,mp-12996
0.0,-1.0927218055625003,Na2Pd6O8,mp-13285
0.0,-0.673808811666666,Ta6B4,mp-13415
0.0,-0.21825181379310363,Zr5Re24,mp-1374
3.9939000000000004,-2.920081738278389,Sr12Ni6P12O48,mp-14884
1.8609,-2.433670869721468,Zn4B6Se1O12,mp-14921
0.0,-0.8282730087499992,Ce2Si4Ni2,mp-15653
0.0,-2.494383432250001,Sr2Mg1Ir1O6,mp-16307
0.0,-1.353467627380952,Dy1P1Pt1,mp-16326
0.0,-0.3277930023076917,Ce1Mn4Al8,mp-16487
0.0,-0.3972803156249993,Lu8Al8,mp-16507
2.5664999999999996,-2.5838390179166657,Nd6Mo12O45,mp-16678
0.0,-0.34412452947368427,Sr1Ni12B6,mp-16830
0.9684000000000001,-0.3945341110476189,K12Na8Sn4P12,mp-16847
3.9804000000000004,-4.1121116075,Tm16O24,mp-1767
0.0,-0.2026494747000001,Na12Hg8,mp-17974
3.8434999999999997,-2.1664714104166674,Hf4Te12O32,mp-18352
0.0,-0.5088494790277771,Dy6Ni14B4,mp-18399
0.0,-0.28387160533333333,Nb20Al10,mp-18427
1.4729999999999999,-0.09631569166666647,Si6As6,mp-1863
0.0,-0.6228083662500001,Ba6Sn10,mp-18636
2.3670999999999998,-2.780332007638889,Li4V2Si2O10,mp-18860
3.0699,-2.087179569428572,K8Cr4O16,mp-19232
0.0,-0.6564578589999996,Eu1Ge3Pt1,mp-19763
0.9891999999999999,-0.6973025028333333,K2In2Te4,mp-19851
0.0006000000000000172,-2.4444279008925003,Cu1Mo1F6,mp-19859
0.0,-0.6154167237500001,Y2Cu2Sb4,mp-19943
0.011999999999999567,-0.1353897849999992,Zn1Co2Ge1,mp-19971
0.0,-0.36890669,Li1Hg1,mp-2012
0.0,-0.752328991666667,Ce4In2Pd4,mp-20165
0.0,-0.02427429000000103,Fe2Sb4,mp-20714
0.0,-0.42424638300000056,Pr1Fe2Ge2,mp-21221
0.8386000000000005,-0.37659621595238085,Cd1In2Te4,mp-21374
0.0,-0.4556511152380957,Ce12In8Ru8,mp-21556
0.0,-0.8205831997222219,Sc24Te12,mp-21576
0.0,-0.9526460459999996,Eu1Si2Ir2,mp-21849
2.4570999999999996,-2.2327926745681825,Na4W4O14,mp-21896
0.0,-0.9855240325000002,Ce4Sb4Rh4,mp-22249
0.0,-0.2604717983333333,Sr2Al4,mp-22318
0.0,-0.7293001605555567,Eu2Ag2Sb2,mp-22707
0.0,-0.499101701,Ce2Ni2Sn1,mp-22713
0.0,-1.0005323574999991,Tm4Ge4Rh4,mp-22794
1.0679,-1.5987050811499999,Na2Bi2O6,mp-23054
0.0,-2.4544101291457148,Sr2Cu1Cl2O2,mp-23102
3.3375999999999997,-1.7565674724477773,Ca8B4N8Cl4,mp-23632
0.0,-0.23979312250000007,Eu1Zn5,mp-2436
0.0,-0.38194468375,Sm2Tl2,mp-2541
2.9379999999999997,-2.5987800486706356,Li4Fe4P16O48,mp-25977
5.147,-2.569494206488095,Li12B4O12,mp-27275
0.0,-0.29871301000000017,Nb5Sb4,mp-274
0.0,-0.44342738875,Yb1Sn3,mp-2751
1.3664000000000003,-1.2004918965555562,K6Ni4O8,mp-27565
0.0,-1.3919175421111116,K6Pt4O8,mp-27566
0.0,-0.23443744000000008,Ga2Au1,mp-2776
0.0,-0.5765538448611119,Er4Ni4B16,mp-27895
0.0,-0.06153265166666699,Yb2Co4,mp-281
1.4617,-1.215852773750001,Ba8Sb16S32,mp-28129
1.8939999999999997,-1.6617782880312504,Na8Sn2O6,mp-28261
3.6546000000000003,-1.3957225866165004,S2Cl4O4,mp-28405
0.0,-0.8960138699999994,Tb1Ge2Rh2,mp-2881
0.9617999999999998,-1.9920136894947622,Ti12C2Cl28,mp-28913
3.0972999999999997,-3.533121708214286,Ba4Nd8O16,mp-2892
0.05339999999999989,-0.8183769684519995,Sr16Ge8N16,mp-29089
0.0,-1.5008785337500004,Ba3Pb1O1,mp-29242
0.0,-1.0721272934099615,Rb2W1Br6,mp-29481
0.0,-0.8913359475,Ba10Bi6,mp-29621
1.5574,-0.9442974071875003,Li4Au4S4,mp-29829
5.3835999999999995,-2.2787900360072726,Ba2Al4Cl16,mp-30023
0.0,-0.29079195999999996,Li2In1Ag1,mp-30344
0.0,-0.46288496333333384,Ta1Pd2,mp-30835
0.0,-0.11068028850000004,Tl8Pt12,mp-30853
0.0,-0.37272861499999976,Zr6Bi6,mp-30933
0.0,-1.0851791841426661,Ho3In1N1,mp-31057
1.8281999999999998,-0.872389260064732,K12P4Se16,mp-31313
0.0,-0.7542842350000001,Er3In3Rh3,mp-3141
0.0,-0.4696383122222218,Ce2Ag2Sn2,mp-31420
0.0,-0.09183657827777776,Na16In8,mp-31430