band_gap,formation_energy_per_atom,full_formula,task_id
2.4698,-2.486385680985981,Ba16Mn4In8S24F16,mp-1204819
2.0824000000000003,-1.6894546806000008,K8Na32Fe8O32,mp-1205067
2.398,-2.5365769772656366,Rb18Fe14P20O80,mp-1205160
4.4382,-3.6869868860125,Zr1Mn1F6,mp-1206098
0.12970000000000015,-1.8958405639166664,Ba2Ag1I1O6,mp-1206237
2.3358000000000003,-2.666919115916666,Y3Fe9B12O36,mp-1207649
0.02120000000000033,-1.2723610657142856,Tm4P4Pd4,mp-1207674
5.8559,-2.8159261826286768,Tm8S12O48,mp-1208214
0.5230000000000001,-2.6739775049999994,Pr4Cu2Ge4O16,mp-1209738
1.2502,-1.698341075041667,Na8Pb4O12,mp-1210368
4.7363,-3.5891100075922213,Lu4Sn4F28,mp-1210917
1.2003,-2.033262542438182,K2Zr12Mn2Cl28,mp-1212009
2.3061000000000003,-1.3927597349969365,In8Se12O48,mp-1212349
0.011399999999999856,-2.1968596538888896,Eu2Ag2W4O16,mp-1213000
0.11959999999999925,-1.2909534896503834,Cs4La24Fe4I40,mp-1213677
4.425699999999999,-3.4130788873611118,Ca4Er1B3O10,mp-1214050
0.7767000000000001,-3.395771391833,Ba4Ca2Ga4Cu2F28,mp-1214730
1.8664,-2.457774731969394,Al2Ni2Ag4F14,mp-1214829
3.1143,-3.70734118407738,Y6Er2Ti8Si4O36,mp-1216271
1.2062,-0.20256664174479155,Tm2Si9B36C1,mp-1216853
1.9281,-3.0613090751136367,Tb4Cr2Sb2O14,mp-1217731
4.5713,-1.2398816888062072,Rb2C2N2O2,mp-1219568
1.6189,-2.132416960025453,Rb10Ti2Sb14O44,mp-1219676
0.8138000000000005,-1.3292611,Ni2Te2O8,mp-1220014
2.3484000000000003,-2.1259243443000004,Na12Al6Fe6Te8O48,mp-1220862
4.1175,-4.012654463947368,Lu4Zr3O12,mp-1222825
1.9389,-2.1059367995,Ca1Bi1I1O2,mp-1227238
4.138999999999999,-1.4565392972295328,Cs2H6Se4O12,mp-1228884
0.05959999999999965,-0.08091646187500008,Ag3Te32Au13,mp-1229219
0.11440000000000072,-3.6370460335119055,Ca2Ce8Si6O26,mp-1229253
6.6192,-3.311024722503892,Rb3Na1Be2F8,mp-13630
2.6215,-1.9099792993214288,K6Ga2O6,mp-13743
3.6289,-3.0307023069612065,Rb1Y1O2,mp-14437
4.3968,-2.571898329244506,In6P18O54,mp-14535
3.3159,-2.4378465244074072,Na8Ti2O8,mp-14726
0.3273999999999999,-0.8976919935238091,Sr3P6Ir6,mp-15074
4.0029,-2.8077448818437505,K16Mg8Si8O32,mp-15171
1.9685,-2.0035053504592417,Rb4Mn16As12O48,mp-15282
0.6608,-0.43140110587499997,K8Sb8,mp-1536
4.8879,-2.589972974757325,Ga6P18O54,mp-15560
4.6575,-3.0930507249964285,Na6Sc4P6O24,mp-16956
4.0029,-2.783195042222223,Ca4Y2As2W4O24,mp-17019
1.4960000000000004,-1.54346313687794,Rb2Er4Cu6S10,mp-17344
6.4852,-3.1392874821648475,Mn4B8F32,mp-17727
2.0844,-3.2319850756250004,Pr8Si4Te4O16,mp-17750
4.0263,-2.715504360856736,Mn4Si2P8O28,mp-17863
0.00649999999999995,-0.15592986399305606,Ag16Sn2Se12,mp-17984
5.9434999999999985,-2.9530158110317464,Li2Tb2P8O24,mp-18194
5.028499999999998,-3.70010706693182,Ho8Si8O28,mp-18662
2.7244000000000006,-2.4959182815833345,Ti2Ni2O6,mp-18732
1.0982000000000005,-2.6479463347499994,Ca4Fe2Mo2O12,mp-18783
0.2491999999999999,-2.774956227083333,Sm2Cr2O8,mp-18956
2.2191,-2.3901457858514283,Li2Mn2V2O8,mp-19107
0.24959999999999985,-2.7992553433333343,Tb2Cr2O8,mp-19272
2.3193,-2.2261260951599997,Mn2W2O8,mp-19407
2.2711,-2.8352325127857143,Ba4V8P8O40,mp-19512
0.5186999999999999,-0.2948286366666665,In2Hg1Te4,mp-19765
0.04050000000000065,-0.702956594166667,La2Ge2Ru2,mp-19898
0.04989999999999917,-0.2650102904166669,Ti1Fe2Sn1,mp-19963
0.9243,-0.7284590652380954,Sr2In4Te8,mp-20397
2.0472,-2.652880421003401,V2P4Pb1O14,mp-22285
2.0423,-0.9283065667324134,K1In1P2S7,mp-22583
3.4959,-2.151344969816668,Pb2Cl2F2,mp-22964
1.4833000000000005,-1.21492054125,Bi2I2O2,mp-22987
1.9398000000000004,-1.6686766189100002,Sr2N1Cl1,mp-23033
2.6934,-0.8244784336111116,Hg2I4O12,mp-23407
2.2683000000000004,-2.477326256611528,Co6B14Cl2O26,mp-23578
4.9828,-2.8116465555014294,Mg8P4H4O20,mp-23740
2.5836,-0.3607907882719996,K4Li2Al2H12,mp-23774
3.3846,-1.1606125090476789,H8Se4O16,mp-23866
4.1119,-2.239104251948,Ca1H2O2,mp-23879
3.6891,-1.2687378425488889,Mn1H4Br2O2,mp-24129
1.3964,-1.483678204430001,Zn4Hg4As4H4O20,mp-24216
1.8569,-1.9326082257642316,Li2Cd8Ge10H2O30,mp-24405
3.1082,-0.4081614120220003,Na12H24Rh4,mp-24747
1.7964,-0.5976247620657471,Hg2P2S7,mp-27171
1.7218999999999998,-0.4940154216666666,Sn3I6,mp-27194
2.3067,-2.5181435676822215,K6Tl6F24,mp-27209
2.9978,-2.2348435296875,Lu2S2Br2,mp-27246
1.1945000000000006,-0.024819757202380426,Tl4P20,mp-27411
4.362500000000002,-2.807408993644359,Sn12B4F36,mp-27431
3.6846,-2.411387268189394,Na8B4O10,mp-27564
4.209199999999999,-2.548051963847619,Pb7Cl2F12,mp-27581
2.9196,-2.718415521944445,Ca1V2O6,mp-27624
0.000300000000000189,-0.14210804999999976,Ce2Cu4,mp-2801
3.6478,-1.442972750485,K12N4O16,mp-28202
1.2280000000000002,-0.16599460583333325,Pt4I8,mp-28319
1.589,-0.841361004241379,Cs1Ge1I3,mp-28377
1.5197000000000005,-1.4615743607031266,Sn15Os3O14,mp-28456
1.9643,-0.4760709271428572,Al12Te12I4,mp-28693
1.3981000000000003,-0.5066856686706349,Cd32P16Br24,mp-28914
1.0606,-1.5350708523437495,Pd2S2O8,mp-28952
0.3605,-2.032982605396444,Ag1Bi2F12,mp-28965
3.5062999999999995,-1.0661768139497558,Na24B40S72,mp-29000
1.7564000000000006,-2.5234111048214296,Ba4Y8S16,mp-29036
0.20910000000000029,-0.29561490100000043,K2Sb4,mp-29055
1.9817,-1.0942486188124998,K40Ga8Se32,mp-29377
1.6658000000000002,-1.9275044962599053,Rb12Cl8O2,mp-29468
2.4659,-0.4947117094444443,W12Br24,mp-29498
2.0692000000000004,-1.2518894365833335,Na8Sn2S8,mp-29628
3.4939,-2.6542297838717857,Sm4S2Cl8,mp-29880
0.42959999999999976,-1.4687863522500002,Sr12Si4O4,mp-30949
3.1228,-1.0322619739973555,Rb8B18S18,mp-31060
0.02610000000000001,-0.09325626661458307,Ag12Au4Se8,mp-3172
3.9284,-3.701946250416667,Nd2Ta2O8,mp-3203
1.2346,-0.5030302416666667,Bi1Te1Br1,mp-33723
0.34629999999999983,-0.4017166760000001,K2Sn2As2,mp-3481
4.1222,-2.3716870971408053,Rb2Re2O8,mp-4035
1.4729,-3.1455283546164776,La4Se3O4,mp-4412
1.923,-1.923746522075758,K2Li14Pb3O14,mp-504806
2.7043,-2.8563899254655074,Ti2Sn12F32,mp-505113
4.4205,-2.2424011923758034,Na8Ga6Si6B2H8O24,mp-534870
9.999999999976694e-05,-3.507661995892858,Sr2Ti6O13,mp-540640
3.8110000000000004,-3.194192704843749,Y4Al4Ge4O20,mp-540905
1.0176999999999998,-0.6082074207689345,Cs8Se20,mp-541055
2.1278,-1.0076275819520006,Sr8Li12Nb4N16,mp-541568
1.9832,-2.3370085864036865,Mn6Ag4P8O28,mp-542161
0.00020000000000042206,-0.4506363087878789,Ce3Ag4Sn4,mp-542824
0.3281999999999998,-1.9204014149107151,Eu4Tm8Se16,mp-542964
1.5182,-1.3490726407500002,K1Na2Cu1O2,mp-545359
1.2916,-2.3615782481249994,Tb1Bi2Br1O4,mp-549475
1.2623999999999995,-2.0622873552232153,Dy2Zn2P2O2,mp-549728
2.0466,-2.506964204361668,Ba2Fe2S2O1F2,mp-551403
3.483,-2.3903114336850666,Sn8P8O28,mp-554022
4.173,-3.1445438721617647,K2Sr8B6O18,mp-554346
3.7754,-2.547067091794643,K4Cd2P4O14,mp-554382
3.6477,-2.500467422870317,Li16Ni8P8O32F8,mp-554446
0.39570000000000016,-2.009295154387273,Dy4Cu4Te8Cl4O24,mp-554882
4.244,-1.9024629378987068,Rb8C8O16,mp-555512
3.0627,-2.9423597640016665,K8Fe8F32,mp-555631
0.4051999999999998,-3.0411847250892867,La28Ru12O72,mp-555890
0.5216999999999999,-1.05229973035,K8Os4C4Br20O4,mp-556047
1.6086,-1.0831909498785717,N2Cl2O2F8,mp-556500
4.8697,-2.9671771112552072,K4Ba4B20O36,mp-557420
4.4971,-1.9011044580172676,Sr3P6N8O6,mp-557650
4.7446,-3.1341544872549023,La4Mg4B20O40,mp-557758
1.8748,-1.38593305925,K10Au2I4O4,mp-558332
5.4323000000000015,-2.9514829561354685,Cs2Al6P12O40,mp-558602
1.2340999999999998,-0.9454521725561226,Na2P2Pd2S8,mp-559446
4.0747,-2.814512471760357,La4S4Cl4O16,mp-559820
4.6921,-2.7566419395829866,Sb4P4O4F32,mp-560310
1.0963000000000005,-3.0284603947691675,La12B2N6O12,mp-560824
4.4754000000000005,-3.138347477275975,Na4La4P8O28,mp-560939
0.9555999999999998,-1.8572333990325005,Ba4Mn6Se12O36,mp-560955
2.2157000000000004,-1.4638079564791304,Co24Te12Cl8O48,mp-562912
1.3419,-0.2788481345700004,Pd4Se32Cl8,mp-567437
1.0426999999999995,-1.5390299557933318,Hf2I2N2,mp-567441
2.7508,-1.6377937595311107,Ba24B12N24Cl12,mp-568923
0.3894000000000002,-0.8867611466666679,Gd1Ni1Sb1,mp-569197
1.5191999999999997,-1.3105029941796875,Dy6Si2Cu2Se14,mp-569557
1.3163,-0.8938557748336842,Bi32As4Au4Cl36,mp-570053
4.1057,-0.837973933,Si8Br32,mp-570285
1.1251,-0.5174760716537866,Rb6P6Se18,mp-571464
1.1005,-0.99889226005625,K16Sm16As16Se72,mp-571473
3.596,-2.623791842183908,Cs2Dy2Mo4O16,mp-572231
4.4582,-2.9252671827174317,Cs8Na8Si16O40,mp-572951
2.9889,-2.150699328375,Na4Ge2O6,mp-5784
0.8328,-2.4284645745932534,Mo8P12O52,mp-585184
2.7867,-1.0798562649760008,Tl8N8O24,mp-5915
2.7137999999999995,-1.3511292716071424,Al2Cd1S4,mp-5928
0.4727,-2.6001409371425006,Ba1Ni1F6,mp-613910
4.3216,-3.1370419727619048,Na8Zr4Si6O24,mp-6150
1.1016000000000004,-0.3781058250000002,In12Te12I4,mp-616327
2.2335,-1.1899663667857143,Pb12I8O8,mp-619661
5.2849,-1.8166358748877929,Ba2P4H8O8,mp-642646
4.511900000000002,-3.74480765961875,K8Gd4F20,mp-642655
3.7724,-1.926157409001389,Mn2H4S2O10,mp-643427
1.6702,-0.3356355186672731,Mg6Mn2H14,mp-643573
3.0863,-2.594122624815271,Cs4Fe4Si4O16,mp-644325
4.1369,-3.1907137747099994,K12Nd4Si24O60,mp-6453
3.2422000000000004,-2.0872117899876863,Cs8Cr4O16,mp-647813
3.2557,-3.2717266384375017,Gd4Be4Ge2O14,mp-650715
3.6802,-3.133419769576667,Sr6Ga2O8F2,mp-6509
4.5132,-1.986588207660476,K48Zn24Cl96,mp-653633
0.3834,-0.3626177787460815,Cs4Bi16Te24,mp-672338
1.1801,-1.988145080309612,Sr2Zr24B4I10Cl46,mp-677002
5.2354,-3.3153114087608713,K2Ca20P14O56,mp-6813
3.9654,-2.712753338220108,Be6Zn8Si6S2O24,mp-6856
4.769400000000001,-3.093539155353095,Na6Al4P4O16F6,mp-686540
0.7303000000000002,-0.24823579003135626,In8P12Se36,mp-686581
4.1827,-1.9723731573272725,Ca4Al2H20Br2O16,mp-695316
5.1941,-2.0218369519762427,Rb4Sm4H32S8O48,mp-695906
4.3016,-1.6360686379329032,K2Sr2As2H32O24,mp-703559
2.5385000000000004,-2.4067228568960086,Mo12P20Pb12O92,mp-704436
3.5580000000000003,-0.1717687219727774,B40H56,mp-706630
4.204,-1.7827383910157135,Be8As4H36O36,mp-720433
3.5098,-1.5311894974627995,Li12La8H24N36O120,mp-722330
0.7410999999999999,-0.6975526517857138,Li6P2,mp-736
0.2523,-2.456434092083333,Gd4I4O4,mp-752520
3.484,-3.0753702092500013,Ba2Gd1Sb1O6,mp-753668
2.4654,-2.0576572394612067,Rb2Ga2O4,mp-754596
0.32089999999999985,-2.5379184777272727,Eu1Re2O8,mp-754760
1.6590999999999996,-2.894403990238096,Li2Ti2Cr2O8,mp-756275
5.4889,-2.538928778177082,Mg2S2O8,mp-7572
2.4084000000000003,-3.2954791136208343,Sr8V4C4O12F20,mp-759772
3.9391,-0.5164216134782343,H28C12N24Cl4,mp-761870
4.0389,-2.547957969466703,Rb2In2B2P4H2O18,mp-766175
3.4781,-2.0759837507692307,Mg4Te6O16,mp-769077
2.0668,-1.926070287583333,Sn12Ge12O36,mp-769144
2.8883,-2.3188942320051087,Rb16Ti4O16,mp-771127
1.1891999999999998,-2.7757016965546217,Nb3Sb1P6O24,mp-774586
4.0486,-2.286651473272727,K2Mg1C2O6,mp-8127
3.4911000000000003,-2.625123371982652,Na12Cr4P32O92,mp-8343
1.7453999999999996,-2.9212535091810343,Ta12Pb8O38,mp-863066
0.5637000000000003,-1.1496824737326663,Ba8Bi4H2O1,mp-865213
2.0386,-1.34629650625,Er2I6,mp-866003
4.822,-1.9935112300840336,Ba2Na2P6H6N6O12,mp-866302
1.6565000000000003,-0.7309235077468189,Cs4Ag8As4S12,mp-866615
2.3669,-0.7211531107219832,Cs1Au3S2,mp-9384
2.7405,0.0,S32,mp-96
2.0848,-1.8750985453333329,Na8Sn2O8,mp-9655
4.4238,-2.669432952164001,Na1Tl2Ga1F6,mp-989561
5.4629,-3.0326690410887123,Cs2K1In1F6,mp-989639
0.8226,-1.0008388848571428,Li2Ce1P2,mp-9912
4.8227,-2.4612057749473792,Cs2Li1Nd1Cl6,mp-1112678
3.9972,-1.831466940991379,Cs2Li1Nd1Br6,mp-1112679
0.29090000000000016,-1.8109463142413795,Cs2Li1Ce1Br6,mp-1112688
4.7669,-2.472753669818069,Cs3Tb1Cl6,mp-1112964
5.2508,-2.490613973647379,Cs2Na1Dy1Cl6,mp-1112990
0.5359000000000003,-3.5462802894053795,Cs2Na1Ce1F6,mp-1112992
2.9743000000000004,-1.4504758489913794,Cs2Li1Nd1I6,mp-1113010
0.5298999999999996,-3.5435575999553786,Cs2Li1Ce1F6,mp-1113019
4.8946000000000005,-2.9631559954553794,Cs2Li1Bi1F6,mp-1113022
4.2852,-1.874150805041379,Cs2K1Y1Br6,mp-1113028
3.2586,-2.1032048961916323,Rb2Sc1Ag1Cl6,mp-1113338
0.9328000000000004,-1.6170244025249656,Rb2Cu1Bi1Cl6,mp-1113342
1.2549,-1.5202412531916325,Rb2Ag1As1Cl6,mp-1113376
3.3391,-3.254283033622046,Cs2Y1Ag1F6,mp-1113425
3.7098,-2.2056250458640463,Cs2Y1Ag1Cl6,mp-1113432
0.7812,-0.9697285812356324,Rb2Ag1As1Br6,mp-1113437
0.8037,-2.4044174406220464,Cs2Tl1Ag1F6,mp-1113441
3.6445,-3.243183134122046,Cs2Sc1Ag1F6,mp-1113448
3.1366,-3.1872217671220464,Cs2Pr1Ag1F6,mp-1113453
3.1671,-3.2019843263720467,Cs2Nd1Ag1F6,mp-1113462
5.8340999999999985,-3.5696840275760686,Cs3Y1F6,mp-1113492
5.855,-3.067885243576069,Cs3Ga1F6,mp-1113508
4.653899999999998,-2.8450511082553787,Cs2K1As1F6,mp-1113517
4.1661,-3.3559412047887123,Cs2Sc1In1F6,mp-1113518
0.6646000000000001,-1.5746720200249655,Rb2Cu1Sb1Cl6,mp-1113559
0.2376999999999998,-1.566567048908046,Cs2Ce1Ag1Br6,mp-1113569
0.5541,-2.3785780294496317,Rb2Tl1Ag1F6,mp-1113579
3.5193,-2.166442251691632,Rb2Tm1Ag1Cl6,mp-1113580
3.2753,-3.228458900949632,Rb2Sc1Ag1F6,mp-1113625
1.3565,-1.5995399586916323,Rb2Ag1Sb1Cl6,mp-1113695
3.4948,-2.165168676691632,Rb2Lu1Ag1Cl6,mp-1113737
2.4203,-2.7309330704496326,Rb2Ga1Ag1F6,mp-1113760
1.0328,-1.6951903130249657,Rb2In1Ag1Cl6,mp-1113761
2.5525,-2.573254715949632,Rb2Ag1Bi1F6,mp-1113798
1.8337000000000003,-1.6477120401916323,Rb2Ag1Bi1Cl6,mp-1113806
3.2430000000000003,-3.0870059444496314,Rb2Al1Ag1F6,mp-1113857
1.2515,-2.2766035794496324,Rb2Ag1Rh1F6,mp-1113876
1.8505,-2.655492699782965,Rb2In1Ag1F6,mp-1114094
2.0223,-2.642802586114,K3Rh1F6,mp-1114156
6.4263,-3.460202190582966,K1Rb2Al1F6,mp-1114347
3.7558,-2.728453008582965,K1Rb2Tl1F6,mp-1114355
3.4666,-2.7642734817829657,Rb2Li1Tl1F6,mp-1114360
3.08,-1.7764884299749653,Rb2Na1As1Cl6,mp-1114362
2.0732,-2.5760338582329654,Rb2Na1Ir1F6,mp-1114365
3.1068,-2.704708684282965,Rb2Tl1Bi1F6,mp-1114370
5.683,-3.0626905978174483,Rb3Ga1F6,mp-1114374
2.0221,-2.621866425817448,Rb3Rh1F6,mp-1114376
3.6642,-2.6913914108174484,Rb3Tl1F6,mp-1114379
5.7504,-3.548673263817448,Rb3Y1F6,mp-1114381
2.2735000000000003,-2.561842321582965,K1Rb2Ir1F6,mp-1114404
4.022,-2.393457076324966,K1Rb2Sc1Cl6,mp-1114410
4.9741,-2.9655382322829658,Rb2Li1Bi1F6,mp-1114416
5.2622,-3.048042592116299,Rb2Li1In1F6,mp-1114419
5.2953,-2.4483283750249654,Rb2Li1Lu1Cl6,mp-1114421
2.9411000000000005,-1.8604686770249657,Rb2Li1Sb1Cl6,mp-1114428
3.7539,-2.3832906185249647,Rb2Li1Sc1Cl6,mp-1114429
6.8909,-3.6205811497829656,Rb2Li1Y1F6,mp-1114432
0.5347,-3.521230378232965,Rb2Na1Ce1F6,mp-1114437
5.0041,-2.4445857274749647,Rb2Na1Dy1Cl6,mp-1114438
5.0204,-2.447461397974965,Rb2Na1Er1Cl6,mp-1114439
5.0464,-2.448011314474966,Rb2Na1Lu1Cl6,mp-1114444
6.9079999999999995,-3.6073330847329657,Rb2Na1Sc1F6,mp-1114456
2.2079,-1.3304230800189651,Rb2Na1Sc1I6,mp-1114457
4.9911,-2.4429336694749653,Rb2Na1Tb1Cl6,mp-1114460
5.3047,-3.2231148747829645,Rb2Al1Tl1F6,mp-1114468
1.786,-2.4342236867829654,Rb2Tl1Rh1F6,mp-1114482
1.4763000000000002,-1.7524849506916325,Rb2In2Cl6,mp-1114486
6.1217000000000015,-3.423327165817448,Rb3Al1F6,mp-1114490
4.4685000000000015,-2.893014295317448,Rb3Bi1F6,mp-1114494
4.0641,-2.9591317938174484,Rb3Fe1F6,mp-1114496
1.9288,-2.5090943057829653,Rb2Tl2F6,mp-1114507
1.2632,-1.6997137598582988,Rb2In1Bi1Cl6,mp-1114523
3.6154,-1.913578662524965,Rb2Li1Bi1Cl6,mp-1114562
5.211499999999999,-2.4485931825249656,Rb2Li1Er1Cl6,mp-1114566
4.2054,-2.9301342407829654,Rb2Li1Sb1F6,mp-1114576
4.042,-1.7937783780689651,Rb2Li1Y1Br6,mp-1114582
1.8299,-1.3555968998522987,Rb2Na1In1Br6,mp-1114590
4.1097,-1.7964231885189654,Rb2Na1Y1Br6,mp-1114601
5.0105,-2.4417707034749654,Rb2Na1Y1Cl6,mp-1114602
1.5869,-1.6823159020249654,Rb2Tl1Sb1Cl6,mp-1114609
3.9744,-1.8983371715594488,Rb3Bi1Cl6,mp-1114619
3.5957,-1.957069713392782,Rb3In1Cl6,mp-1114625
4.556800000000001,-2.7977480380829656,K1Rb2As1F6,mp-1114640
2.5525,-2.150199290858299,Rb2Sc1In1Cl6,mp-1114650
3.4024,-2.1901683395249654,Rb2Sc1Tl1Cl6,mp-1114663
4.0651,-2.3680508095594486,Rb3Sc1Cl6,mp-1114665
5.2728,-2.448539024024966,Rb2Li1Tm1Cl6,mp-1114667
3.906,-2.383146107974965,Rb2Na1Sc1Cl6,mp-1114671
2.7191,-2.5737643832829655,Rb2Tl1As1F6,mp-1114681
4.2314,-2.7608541783174485,Rb3As1F6,mp-1114687
5.1246,-2.9632596851507818,Rb3In1F6,mp-1114689
4.5851,-2.8225163152829653,Rb2Li1As1F6,mp-1114698
1.7225,-2.6558984567829653,Rb2Li1Rh1F6,mp-1114700
6.7042,-3.594713459282965,Rb2Li1Sc1F6,mp-1114702
4.1671,-3.072056256817448,Rb3Cr1F6,mp-1114712
3.9124,-2.5366673932053576,Na6P2O8,mp-1173671
1.8256,-1.9711166821875,Yb4Te10O26,mp-1178715
2.1149,-1.8144392247287071,Rb4F12,mp-1179734
0.1979999999999995,-0.6974162893750003,Ni2S4,mp-1180046
1.8965,-0.4717516124200003,N4F8,mp-1180208
3.674,-1.3367160881980005,Li2H4I2O2,mp-1180504
2.0531,-1.0934041876136371,La2Br6O14,mp-1180738
0.6659999999999999,-1.4231358315857146,K8Eu2P4S16,mp-1180828
2.3613,-1.7211759677200003,K8Hg4Cl16,mp-1180946
0.12890000000000024,-0.9733490071822222,Au1O2F6,mp-1182345
2.7426,-1.9535263412020003,As1N1O2F6,mp-1182477
5.4335,-2.8665293689308378,Rb2Pr2P6H2O20,mp-1186971
0.7736000000000001,-3.1395999591405555,Na6Ti2F16,mp-1190997
2.4758,-3.3820602892045466,Gd6Sb2O14,mp-1191117
1.7147,-0.815354760436,Zn2C4N16O8,mp-1193746
2.2709,-1.432608104474,Te8H8O24,mp-1195796
2.2548,-1.61172369741875,Na4Fe4Se8O24,mp-1197715
4.6139,-2.8158733772203366,Cs4K4B20O34,mp-1200330
2.0780000000000003,-0.5580490395937503,Te4S28Br8,mp-1201162
4.6237,-1.8111566622023807,Ba6Ru6O30,mp-1201605
0.6464,-0.3930373229146866,S28N4,mp-1203253
1.2305,-2.6085867826242937,Rb12V8Zn4P16O68,mp-1203890
3.9184,-2.477676516185065,Fe6P8Pb2O28,mp-1204465
2.3267,-1.7543333032916217,V4Pb28Cl8O34,mp-1204784
6.8180999999999985,-3.598720127255379,Cs2K1Sc1F6,mp-1205574
2.4046,-2.801215354302632,K2Nb8As2O26,mp-1223401
1.3522999999999998,-2.755490096358544,Ti2Mo2P6O24,mp-1239324
0.05010000000000003,-1.996018054375,Ca8Bi16O40,mp-1239330
2.1986,-2.7019496572408968,Ti2Sb2P6O24,mp-1239394
2.3575,-3.004844069616404,Ca2Ti2Cr2P6O24,mp-1239442
2.1916,-2.7830257857703096,Ti2P6W2O24,mp-1244526
1.4449,-3.0403736540608457,Ca2Ti2V2P6O24,mp-1244678
0.9931,-2.9531574646164023,Ca2Ti2Mo2P6O24,mp-1244721
2.8341000000000003,-3.06311570047619,Ta2Ti2P6O24,mp-1244815
2.9385,-0.68962026884463,Rb2Al2H16N8,mp-1251539
4.6850000000000005,-3.400013904198276,K2Al22O34,mp-1252068
7.1996,-1.6988714437128,Si2H28O8F12,mp-1256602
1.6787999999999998,-2.9199394897499986,Gd4Fe4O12,mp-600576
2.4219999999999997,-2.4149716031262853,K8V8P8H8O48,mp-735504
2.8634,-0.9544269010436364,Mo2H24Pd2N8O8,mp-742819
4.0705,-1.6092062997574192,Cr1H18O9F3,mp-743538
2.6759,-2.432980482680489,Mn1Fe2Sb2P6O24,mp-743566
2.1067,-1.3496553263759616,Mn4H8Se8O32,mp-743568
2.5406000000000004,-2.7029257104962414,K4Ba4Fe8P12O48,mp-743573
2.7483,-2.21773815336421,K6Li2Mn8Mo12O48,mp-743574
2.3111,-2.802962618280848,Ti2Mn2Cr2P6O24,mp-743582
2.3259,-2.6515884461804515,K8Nb2Fe6P12O48,mp-743604
4.2669999999999995,-2.2754421200268653,Na6Ni6P12H6O42,mp-743636
2.9419999999999997,-2.1624164491891893,Mg1Zr3Tl10Mo12O48,mp-743697
2.2236,-3.2327223362336968,Na3Ca18Fe1P14O56,mp-743773
1.8424,-2.840090361096,Sr2La2Mn2Sb2O12,mp-743873
2.7422,-2.6407685937713965,Mn4Si4Sn1B2H2O18,mp-743890
2.6899,-1.826918675028334,K6Cr6As3H3O30,mp-744181
2.327,-1.7999121918617869,Rb8Cr4H8Cl20O4,mp-744208
3.3328,-1.6334879718537871,Cr4H60S8O60,mp-744264
2.5428,-2.3177233447570686,Rb2V2H8O4F8,mp-744347
3.1887,-0.9311346164665212,Cr2H28N8Cl6O2,mp-744472
2.4814,-2.432225495140001,Er8Cr8H8O40,mp-744580
3.8247,-0.9893363122381484,Zn2Cr2H30N10Cl8F2,mp-744625
1.9457,-2.850423637764034,Ba2V3P6H1O22,mp-744637
1.8656,-2.6672791057228142,Mn24V4Si20H4O76,mp-744654
2.8948,-1.7443579843796204,Na1Mn6Al3H42S2O38,mp-744751
3.210500000000001,-2.4198284166843207,Mn7P6H4O24,mp-744764
2.8195,-2.027620564880455,V6H2Pb10O26,mp-744832
3.5898,-2.136505894366883,Ni8P8O28,mp-745012
3.8562,-1.5703868883731664,Rb4Fe4H16Cl12O8,mp-745034
1.6651,-2.3850582202377923,Mn4P8H4O28,mp-745148
2.9905,-1.9697860249855548,V4Zn4H4Pb4O20,mp-745150
3.1862,-1.9796885511877376,Mo2P2H6O14,mp-745159
2.9477,-2.3391502886667856,Fe4P12H8O40,mp-745164
3.5417,-3.075581703552353,Sr8Fe8H8O4F40,mp-745166
3.0459,-1.4298290498054542,Cr2H24Cl6O12,mp-745175
2.1988,-1.0479483329478945,Fe4H40N8Cl20O4,mp-849222
1.3168,-2.0610981975568192,V8S16O64,mp-849323
3.9667,-1.6071665885669149,Cs4Cr4H96S8O80,mp-849663
2.3001,-3.2273025716266672,Li2V2F8,mp-849734
1.165,-2.146626775357143,Co2P2O8,mp-849770