band_gap,formation_energy_per_atom,full_formula,task_id
4.5798,-2.5384944591938643,K8Sb4S4O16F12,mp-554643
2.8523,-2.802203909522442,Ti4P4H4O20,mp-554704
0.6949999999999998,-2.396894681370436,Ba6Ru2Pt1Cl2O12,mp-554949
1.8941000000000003,-0.9950458226562507,Ta2Tl3Cu3S8,mp-554994
1.0435,-2.7100299094409532,Sr10Cr6Cl2O24,mp-555204
2.3013000000000003,-2.8563244706628788,Ba13Dy8Zn4Pt4O37,mp-555356
3.1953,-2.6172911180146947,K4Mn4P4O16,mp-555605
2.3292,-2.6611778831987576,Ba2Mo4P8O32,mp-555876
3.5178,-3.1141408747907686,Pr6W2Cl6O12,mp-555930
0.4893000000000001,-0.8390846202777777,Cu2I4O12,mp-556582
3.718,-3.3088019274074068,Ca16Al24Mo4O64,mp-556889
3.5660000000000003,-2.9337257460714286,Sr16Ge8O32,mp-557311
2.0973,-2.8705960814795914,Ba1V2P4O14,mp-557348
0.8754,-1.4260951914722222,Na4Bi8Au4O20,mp-557498
1.9408,-2.6572689254061896,Ba4In2Cl2O6,mp-558243
0.2895000000000003,-1.7851224078100003,Na8Mn8O12,mp-558376
2.2474000000000003,-1.9434028545733335,Fe4Te4O12F4,mp-558502
1.4169999999999998,-2.3233111846425,Cr1Hg1F6,mp-558864
1.4853999999999998,-2.231004613509643,Pr12S12N4,mp-558940
3.7753,-3.06636588947,Sr8V4Cl4O16,mp-558952
3.4093,-2.7050114175833344,Nb4Tl4B8O24,mp-559057
1.7254999999999998,-1.8630153764444441,K2Li6Pb2O8,mp-559106
4.2168,-3.315129455230833,Sr12Al8Cl8O20,mp-559224
2.4773,-3.539986568125,Ba14Sc12Al4O38,mp-559325
0.2679999999999998,-2.199454022725001,Ba4Na1Bi3O12,mp-559352
3.6746,-2.533838721174846,Rb8Ga8B8O28,mp-560010
4.6781000000000015,-3.6507914854086674,Ca16Si8O28F8,mp-560163
4.3605,-2.7153073103609917,Cs4La4S8O32,mp-560260
4.6238,-2.613922236444167,K3Ni2F7,mp-560449
1.5806,-1.8506787810888168,K8Y16Sn8S44,mp-560785
3.907000000000001,-2.609190662913715,Mg20Ge6H8O36,mp-560872
4.0817,-2.5698171070739795,K8P8W4O36,mp-561311
1.3951000000000002,-1.6201146549697585,Ba32Sb24S68,mp-561455
1.7235,-1.0568668992079742,Cs4Sb4S8,mp-561639
1.6176,-2.362841640250001,Sr4Co2Te2O12,mp-561642
0.7564,-2.26875724695538,Cs1Hg1F3,mp-561947
2.4338,-1.4314028916370845,Co10Te8Cl8O22,mp-562327
1.3907,-1.3737550889136911,Ag4S2O8,mp-5625
3.2151,-1.3159658339359992,Sr1Si6N8,mp-567278
1.0899,-2.311272844695641,Ba2Zr6B1Cl17,mp-568105
2.2911,-1.2176676442911871,Cs6Mn2I10,mp-569118
0.7223999999999999,-0.08441186624999998,Te4I4,mp-569766
3.5755,-0.3437679462455555,Na12C24N36,mp-570248
1.3236,-1.073846708402321,Nb8P16Se16Cl40,mp-570486
1.7150000000000003,-0.5762119233217591,Ba2B4Se12,mp-570823
0.7654000000000001,-0.2775169095454544,Nb2Te8I12,mp-570873
1.7740000000000002,-0.9918930116379312,Cs8Te4,mp-573763
0.9475999999999998,-0.06684891770833268,Re6I18,mp-573815
4.337199999999998,-2.7281149186049123,Si4Mo4P12O44,mp-581326
2.2822,-1.471973588734844,Rb12Er12P16S64,mp-583084
1.6707999999999998,-0.7384971090468753,K2Ta2Cu4Se8,mp-6013
1.8538000000000008,-1.6550674586607133,Fe8Te12O36,mp-605856
2.3863000000000003,-1.0966452451851856,Zr2In4Br12,mp-610738
5.1506,-2.3938617137849003,Cs4S4O12F4,mp-622195
2.7545,-2.2590736985704027,Rb4V8Sb4O32,mp-622258
1.7595999999999998,-0.8334698429375003,Ge4Pb4S12,mp-624190
4.66,-1.447862892055333,Na2H18O10,mp-625378
2.1035,-1.4626136590057144,Al4Bi4Te4Cl16,mp-628665
2.6108,-1.4517639822146673,Na2H6Pt1O6,mp-632760
3.5998,-1.6070309109940004,Na1Te1H6O6F1,mp-633158
0.33729999999999993,-0.7810267757812506,Zn1Cu2Ge1S4,mp-6408
4.054000000000001,-1.5946309011899995,Al2N2,mp-661
0.3091999999999997,-2.450530509916667,Ba6Sr2Ru4O18,mp-6641
3.2592,-3.1042479025,Ca12Y8Ge12O48,mp-669331
4.577,-3.2147022269583334,Na4Zr2Si8O22,mp-6824
2.3215,-1.6639850440615636,Fe1H4S2N1O8,mp-684724
3.5131,-1.6309578317089994,As5N10F35,mp-685810
1.1315999999999995,-2.7549955744700005,Sr8Cr4Cl4O16,mp-693892
5.093300000000001,-3.611493453854168,Ho4Be4Si2O14,mp-7013
3.3303000000000003,-2.8724009079750004,Na4Ca8Mg8V12O48,mp-706239
0.2107000000000001,-2.558099872550001,Sr20Fe1Co9Mo10O60,mp-706242
0.6470000000000002,-1.175405095000001,Sc1Sb1Pt1,mp-7173
3.3692,-2.332465735215669,Rb8In8P8H8O40,mp-733729
0.4468000000000001,-0.4012418426666669,K2Zn2Sb2,mp-7438
3.9934,-1.9208995262500004,Y2Br6,mp-754815
1.831,-3.0552247041666667,Ta2V2O8,mp-755190
1.0341999999999998,-2.677294142073334,V4O6F2,mp-755197
3.5488,-3.6035269928571423,Ba2La4O8,mp-755558
1.8788,-2.0521099006477765,Mn4V4H4Pb4O20,mp-757573
0.7363999999999997,-1.7879898930357143,Li8Co12Sb4O32,mp-757613
4.2186,-2.0028853221875003,Bi4S6O24,mp-760109
1.4706,-0.7965278927083345,Pt1S2,mp-762
0.635,-0.7999892363562502,K4Se6,mp-7670
4.5469,-3.836461367031249,Dy8Si4O20,mp-768317
2.741,-2.354495138314176,Cs16Hf4O16,mp-771139
1.789,-1.7965168498684203,Li8Cr12Co8O48,mp-772115
4.5517,-3.5878397256700008,Tm2Cl2O2,mp-772295
1.3376,-2.9881626926041664,Pr4S4O4,mp-774472
3.2959,-3.921347049114584,Er8Ti4O20,mp-774567
4.3086,-2.6571592000142084,Rb1Na3Li12Ti4O16,mp-774749
1.2096,-0.4848880790571428,K4Si2P4,mp-8235
3.9882,-3.108337016375,K1Y1O2,mp-8409
3.3651,-2.130156603965517,Rb4Li4Ge2O8,mp-8450
4.546,-2.8591227657933325,In4B4F16,mp-8586
5.3739,-2.2749361219337167,Cs2Mg1P4H8O16,mp-866620
2.3069,-0.9363075902333924,Re4Te4Se4Cl16,mp-866695
0.0036000000000000476,-2.0752980568292694,Y6Cu11O24,mp-867628
2.2840000000000003,-0.9904867548333336,Na4Li4Te4,mp-8754
1.1317000000000004,-2.622708708226,Ho2C1F2,mp-9006
0.4521999999999995,-0.4881375859049997,Sr1Ga1Sn1H1,mp-978852
4.1305999999999985,-2.895117676232965,Rb2Na1Sb1F6,mp-989541
0.40370000000000017,-2.4481469923863632,Y4Co4O14,mvc-14045
3.746,-3.2159225483925,Mg1W1F6,mvc-15861
0.5840000000000001,-0.44746768340499976,Ba1Ga1Si1H1,mp-1008506
7.6906,-3.985118325793334,Li2Yb2Al2F12,mp-10103
5.3095,-2.9978079532043655,Li4Mg12P12O44,mp-1020109
4.3588000000000005,-2.7021863601717597,Rb5Li6B11O22,mp-1020620
0.4966999999999997,-0.3320460321666673,Ca2B4C4,mp-10289
2.2181,-0.5336093229808334,Li56Sb8N32,mp-1029522
0.1817000000000002,-0.41429559671268257,Na30Re14N38,mp-1029650
1.6688999999999998,-2.285008464270834,Nd2Fe2Se2O3,mp-1078182
0.8394999999999999,-0.9847522730989584,Hg2Se2O8,mp-10796
1.8395,-1.9445553805681808,Dy4Te3S4,mp-1095296
1.2312000000000003,-0.7714872768749998,Cd4S8,mp-1095440
0.1377000000000006,-1.3692092578645827,Lu4As4Se4,mp-1095656
0.7039,-3.3583954277462125,Tb2Ti2S2O5,mp-10960
0.3898999999999999,-1.4447620570312498,Dy4As4Se4,mp-1102952
0.5951999999999993,-0.23461083619791745,Bi4Ir4Se4,mp-1103228
0.6746,-2.3704814060609527,K4Ag2F8,mp-1104293
1.0181000000000004,-1.3317262666071426,Mn2Al4S8,mp-1104783
0.5568,-0.8032512597619051,Ba6P12,mp-1105095
2.4031,-3.17823823425,Sm4Cr4O12,mp-1105788
0.26069999999999993,-1.4394985996913796,Cs2Na1Ce1I6,mp-1112656
1.5228,-1.3422846337847227,Na5Cu1S1O2,mp-11147
0.5665,-0.024963627511111024,Mg149Ag1,mp-1185591
0.4181000000000004,-0.026427840833333296,Mg149Sn1,mp-1185637
1.4070000000000005,-0.43221992494642825,K4Te4P8,mp-1188829
0.5098000000000003,-1.5877235164705876,Tb6Ni1Br10,mp-1189005
2.9312000000000005,-2.4296515119345248,Ho2Co1Te2S2O14,mp-1190336
2.4611,-2.128721277386364,Sr2Cd2As4O14,mp-1190367
0.02150000000000052,-1.9933206749479169,Sm4Eu4Cu4S12,mp-1190656
0.407,-1.7965543995684528,Tb8P8S8,mp-1190952
0.17759999999999998,-0.4008203295833332,Dy16Ga6Co2,mp-1191058
0.4514000000000005,-1.7889072820684528,Sm8P8S8,mp-1191565
1.7249000000000003,-2.5210009662500004,Ba4Er8S16,mp-1192439
0.10770000000000036,-0.3440065895833329,Dy16In6Co2,mp-1192724
2.0466,-0.8266249713258931,Na12Sb4Se12,mp-1193265
1.2455,-0.6749538702616995,Cs8Zn4Sn12Se32,mp-1194701
2.4748,-2.7260210640219777,K4Mg4Fe4P8O32,mp-1194865
5.4087000000000005,-2.7152614928961394,Ba4Al4B16H12O40,mp-1195235
6.0523,-3.1102429496593333,K12B12O12F24,mp-1195407
1.3694999999999995,-0.2331528299317961,Tl8Ag8P8Se24,mp-1195701
3.7539,-2.787683572556202,K18Li6Nd6B14O42,mp-1195894
3.7535,-2.5770953470909093,K4Cd4B12O24,mp-1196758
1.6678,-1.8832278470108692,Sr2Au4S8O32,mp-1197529
0.6538999999999997,-0.34635916431818203,Ca44Sn12C32,mp-1198370
2.8920000000000003,-2.6710609002624697,Cs4V4P4O20,mp-1198694
5.0711,-1.6496376101289574,Na4Al8H72S16N16Cl4O72,mp-1199124
2.755,-1.3561724130998067,Cs2Mo2N6O22,mp-1200253
2.0404000000000004,-1.9532418122569453,Ba12Ge4S20,mp-1200759
0.15499999999999936,-0.12811704200000024,Sb2Te3,mp-1201
1.1561,-0.40420137330370665,Rb16Sn16H24N8,mp-1201043
0.9265,-0.3689657781457587,Cs16Ga22Cl2,mp-1202213
3.7922,-3.0473859058695245,Ca10V6Cl2O24,mp-1202595
4.8194,-0.9686213857027274,H24C4N8O8,mp-1203058
4.1012,-0.6261837306834457,B8H104C32N80Cl8O4,mp-1204048
0.24449999999999994,-0.3579992474784484,Cs16Bi16,mp-1205121
1.5665000000000002,-1.456755088474138,Cs6Br2O2,mp-1205638
0.4026000000000001,-0.930601675,Sr2As2Au2,mp-1206525
4.551,-2.661898181514,K1Tl2Ga1F6,mp-1206641
1.5366999999999995,-1.4924139224045831,Dy1H1Se1,mp-1207186
2.458,-2.605524855684523,Ti8Ag8P8O40,mp-1208280
3.602,-2.6195011864870685,Rb4Dy4Mo8O32,mp-1209371
2.7169,-2.068019458309324,Rb8Co8S12O48,mp-1209634
4.5671,-3.3218003537836656,Rb8Mn8Be12F48,mp-1209659
1.7458,-2.447038725250001,Nd4Ni2Pt2O12,mp-1209936
0.955,-2.10622204581,Sm4Nb24Cl52O12,mp-1210395
2.3235,-2.2851697163699995,Li4Mn2Ge2O8,mp-1210796
2.069,-1.9653553205104168,K1Tl1S2O8,mp-1211257
4.76,-2.838860123486842,Li24Er4B12O36,mp-1211468
4.5680000000000005,-2.651830482832,K4Ho8Cl28,mp-1211594
4.4593,-2.4485464127421435,Li8Zn8P16H8O56,mp-1211621
0.9287,-2.066684104316,K6Zr12Be2Cl30,mp-1211761
1.8163,-0.7292099069756949,K4Ag4Te4S12,mp-1211783
4.4262,-3.3121887017708342,Ho4Be4Ge2O14,mp-1212368
0.011700000000000266,-0.5881855056060604,Dy6B14Mo2,mp-1213062
2.3680000000000003,-2.5329892209420293,Al6Si6Ag8I2O24,mp-1214863
2.6832,-2.2022965732142845,Zn1Cr4Co1O8,mp-1215697
1.6134,-1.2643526735250004,Na1Li1Cd1S2,mp-1220967
4.4519,-3.654768795940477,Na1Nd9Si6O26,mp-1221031
2.7018,-1.9005841676588893,Na1Fe2Mo2H3O10,mp-1221050
0.5835999999999997,-0.6718026607272727,Na8Sr4Si2As8,mp-1221154
2.6472999999999995,-1.34954125061012,Li18Nd4P10S40,mp-1223032
2.0346,-2.8332448722053565,K8Nb4V4P8O40,mp-1224543
0.13260000000000005,-2.0756884108333336,Ga1Sb1O4,mp-1224786
2.9348,-2.6054098187452106,Cs2Hf1W3O12,mp-1226215
4.1499000000000015,-2.676497123926904,Cs2Ge1B4O9,mp-1226455
2.8043,-3.248918245555556,Ca4Al6Cr1O16,mp-1227669
2.6181,-1.3241752329374996,Ba1Ga2Ge1S6,mp-1227983
1.8582,-2.5944584078947366,Ba4Re2Ni1O12,mp-1228183
3.6895,-2.8429286954166657,Sm2As2O8,mp-12929
2.166,-3.3426856502187503,Sm2Se1O2,mp-13972
1.3385000000000002,-0.1879998313696123,Rb28Na4Ge32,mp-14407
2.3195,-1.128319720406746,Hf2P4S12,mp-14444
1.7724,-2.250081503838929,Nd8Au20F84,mp-14716
2.7645,-1.2146663086145832,K6B6S12,mp-15012
1.036,-1.108288469490741,Ba32Ti8As32,mp-15503
1.8171,-2.2112585390312507,K1Gd1S2,mp-15784
1.9353,-2.18394633703125,Li1Y1S2,mp-15788
1.5913999999999997,-1.6969558480468745,Li1Ho1Se2,mp-15796
1.6209000000000002,-1.6951863080468748,Li1Er1Se2,mp-15797
0.06059999999999999,-0.8226657523809523,Sr2Cu2P2,mp-16321
4.7135,-2.7419260061083337,Na4Be2B4O10,mp-16737
0.5398000000000001,-0.4407533116666669,K20Sn4As12,mp-16989
4.707,-3.8246374129687513,Ho8Si4O20,mp-17065
2.2661,-2.965379085227273,Sr6Sc2Rh2O12,mp-18247
2.9998,-2.4031810943750003,Li1Cr1O2,mp-18793
0.26770000000000005,-2.780310377500001,Y2Cr2O8,mp-18825
1.4377,-2.427694483298461,Ca2Mn3O8,mp-18893
2.983,-3.2309310725,Tb2V2O8,mp-19121
3.0044,-3.2097224904166666,Sm2V2O8,mp-19323
2.7686,-1.8853320265104176,Co4S4O16,mp-19379
2.0141,-2.1449172736630033,V4Ag8P8O32,mp-19478
0.04020000000000002,-0.5430938150000003,Ba8Pb4,mp-21246
1.2382,-1.7502153491666659,Fe4Te2O12,mp-21437
2.3835,-1.8082387689099997,Ca2N1Cl1,mp-22936
5.9367,-3.59748310815,Sr2Cl2F2,mp-22957
0.4834999999999998,-1.8863717901973795,Cs2V2Cl6,mp-22977
1.69,-2.1773502706700008,V2Cl2O2,mp-23061
4.8829,-3.2561436170633336,Ba2Br2F2,mp-23070
4.9315,-3.2903236922108836,Sr10P6Br2O24,mp-23141
2.1496000000000004,-0.362484195,Sb2I6,mp-23281
4.4703,-1.0163308626500005,Na4Br4O12,mp-23339
3.0180000000000002,-0.4831960043099999,Li1H1,mp-23703
3.6853,-1.497240049961844,Rb4Zn2H24Se4O28,mp-24182
2.8966,-1.9285117288410536,K2Mg1Cr2H4O10,mp-24835
1.5928,-0.4094117110714288,Ga1P1,mp-2490
0.7301,-1.6155138538628573,Na8Co4Cl16,mp-27402
0.5542,-0.8850990686699508,Rb4Co2I8,mp-27517
1.1727,-1.2113595972499998,K2Tl2O2,mp-27716
2.9222,-1.9163356618749996,Nd2Br6,mp-27975
3.2086,-2.6428904941447358,Li32Nb8O36,mp-28030
2.7447,-1.9207239258333333,Re8Bi24O64,mp-28287
1.7274,-0.7799017301570833,Au4Se4Cl28,mp-28372
2.5139,-0.2910556595918367,B12P2,mp-28395
1.9357,-0.4242018320312497,Hg24Te8Br32,mp-29097
0.4832000000000001,-0.6238102915642847,Sr12Cu6N10,mp-29136
2.3004,-1.8055188012500003,V2Hg2O6,mp-29188
4.0215,-3.74414935775,La2Al2O6,mp-2920
0.6948,-1.3762149810072728,Ga4Cu2Cl16,mp-29300
3.7736,-2.1323194595454558,Re6Pb3O24,mp-29305
2.206,-1.262441968045977,Cs2Hf1I6,mp-29398
3.0622000000000007,-1.6256512117672404,Cs12Bi4O12,mp-29505
1.9270000000000005,-2.6578015130875,Sn4O2F10,mp-29590
1.6979000000000002,-1.0255307038805,Ba32Nb10N38,mp-30001
1.4384,-0.9316416577166668,As2Cl10,mp-30106
1.7272999999999996,-1.5385528353409093,Cd8Te8O28,mp-30940
1.0698,-0.8378478474450001,Pt12Cl36,mp-31134
1.0762,-1.219466720839844,Ba32Sn16Se80,mp-31307
5.219799999999998,-1.475876426587822,H36S2O24,mp-31373
0.2685,-0.3788317627692308,Na16Sn2Sb8,mp-3138
0.3784000000000001,-2.60612265625,Ba1Sn1O3,mp-3163
1.1487000000000005,-2.506897834201681,Mo4P6O24,mp-32094
2.2707,-0.7648647441266666,Li1Mg1N1,mp-37906
4.3128,-2.21992849716381,Li2Ni4P8H6O28,mp-40575
2.2742,-2.4310025043948658,Cs2Pd1F6,mp-504729
2.0385,-1.8411602168492307,Fe1Sn1H12O6F6,mp-505108
0.7351000000000001,-0.09611891989247337,Mg2Al4B56,mp-531611
0.7975000000000001,-2.405340501894,Mn8F32,mp-541103
0.5072000000000001,-0.3038345687339217,Rb24In8P16,mp-541766
1.6649000000000005,-1.311668685045125,Rb12Ta8S44,mp-541975
3.2381,-2.327421852132353,Ho4Te8O22,mp-542514
1.3711000000000009,-2.4754715272825,Tb1Bi2Cl1O4,mp-547125
5.2851,-2.843461056538924,Rb10B38O62,mp-553925
2.8585,-2.169028122613638,Ba4Zn4As8O28,mp-554083
2.3778,-2.895768767076719,Ba6Mo4P8O36,mp-554339
3.7855,-3.40539244235119,La6B2W2O18,mp-554773
3.1145,-1.3653043051717948,Sn2H44Cl12O20,mp-554808
1.4015999999999995,-2.655722514285715,Sr2Fe6P6O24,mp-555399
4.6536,-2.2028756200813637,Ca8S16Cl16O48,mp-556040
4.4227,-2.8106559036997787,Cs4Sb8F44,mp-556061
2.7218,-1.5911468705549572,Rb8Li4Ta4S16,mp-556085
3.0126000000000004,-3.15953022248399,Ba6Na2Nb2P2O17,mp-556637
0.3536999999999999,-1.302227325140085,Fe4Cu6Se12O36,mp-558202
3.83,-2.454705376596428,K4Zn16P12O48,mp-560419
3.3262,-2.2715406632575754,Zn8B8Pb4O24,mp-560471
4.029,-3.783270057083,Ba4Ca4Cr4F28,mp-560577
3.3838,-2.016217124373483,Rb4Te4N4O12F16,mp-560578
1.6103,-3.00385049485138,Cs2K1Mn1F6,mp-560861
2.8496,-1.6018913358132498,Ta4S4Cl28O4,mp-560884
3.6606,-2.2472799914722215,Na8Li24Ge8O32,mp-561254
1.7823,-1.4653712765227274,Na8Co2Au2O10,mp-561744
0.014700000000000046,-0.005230739106557431,Ba38Na58Li26,mp-569025
0.045199999999999914,-0.7174799890885417,Ba1Ag2Ge1Se4,mp-569790
0.13050000000000006,-0.9684371575000004,Zr4I12,mp-570188
0.9568,-0.7829126517690975,Na48Sn24Se72,mp-571470
2.505,-1.0001701599999993,Co4I8O24,mp-572672
2.2867,-2.203973590444712,Ba24Nb16S52O12,mp-583297
4.0139000000000005,-3.764408949166666,Ho2Ta2O8,mp-5985
1.1698,-0.6837075853976291,Cs2Sn2Se6,mp-613162
0.1876000000000002,-1.5205241568237549,Cs4Na4Ir2O8,mp-616507
4.6122999999999985,-3.3933278071428563,Li4Sc4Si4O16,mp-6224
3.4329,-1.5533031411922984,Cs2H2O2,mp-625136
0.0020999999999999908,-2.633101130694445,Ba4Yb8Cu4O20,mp-6323
0.028000000000000025,-0.7150320593816666,Ho6H18,mp-632656
1.4388999999999998,-1.2608691463793105,Cs2Sn1Br6,mp-641923
3.9357,-0.47987519045931,Cs2H6Pt1,mp-643243
2.6619,-2.4576480850178584,K8Co4P8W4O40,mp-645301
2.5594,-1.63513734596591,Bi32Te32O112,mp-667426
0.5603999999999996,-1.4914923522704089,Li8Eu8P8S32,mp-672252
4.7394,-3.2727512819065945,K3Ca3Nd3P6O24,mp-676934
0.6547,-1.7000097508045642,Cs16Ru8Cl40O4,mp-679984
5.6139,-3.21942974575,Ho16B48O96,mp-680713
0.6649000000000003,-1.2533670700592856,Eu8C4I9N7,mp-684011
1.8409,-0.7471217852500001,Sr2H1N1,mp-690794
1.9668,-0.6208754707466666,Ba2H6Os1,mp-697044
2.7263999999999995,-1.1705985918425004,H4Pb4I4O4,mp-697084
4.658,-0.9102143753533324,Al4H60N20Cl12,mp-699469
1.758,-2.290213982136969,K24Na8V8S28O120,mp-704360
5.107,-0.6498916028063633,H48C8N24Cl8,mp-707023
3.3586,-2.487363299481464,K24Zr12H32O48F48,mp-707782
0.5552000000000001,-0.8345074320312502,Cr1Au1S2,mp-7113
1.9609999999999999,-1.7401813747077786,Zn8As4H4O20,mp-721702
3.5309,-2.01195359195575,Pr8H8Se16O48,mp-733581
0.6527,-1.4386328517500002,K4Cd4O6,mp-7534
1.5084999999999995,-2.489081004659092,Ho4Pt4O14,mp-755635
2.8346,-2.9535563440407415,Li6V3O3F15,mp-757198
5.1434,-1.3859640172524998,Al8H24N8Cl24,mp-759356
1.1994000000000002,-0.4100501331666671,K4Ag2Sb2,mp-7643
4.7304,-3.3947823677274074,Rb2Al22O34,mp-766387
2.3649,-1.6223377614351857,Li16Ti4S16,mp-766540
3.7854,-2.4535984503373016,Sn8P16O48,mp-766947
1.7961999999999998,-2.5452662872187504,Dy8Se8O24,mp-769393
2.9093,-3.4640209642045465,Ba4Ta4O14,mp-770239
3.7485,-3.2783556394444457,Sm8W4O24,mp-770406
1.7975,-2.935416432727273,Ta16W8O64,mp-772657
0.2536999999999998,-2.060731029752381,Li6Mn10Fe2O24,mp-774685
2.2235,-2.3593814589204563,Ti3S6O24,mp-775149
4.0312,-2.8391680802212287,K8In4Si16H4O44,mp-775466
2.4425000000000003,-1.7659631153409099,Zn16As16O56,mp-779594
0.5475999999999992,-0.6657922103571429,Ba2P6,mp-7808
3.5047999999999995,-2.9614961975862064,Rb1Sm1O2,mp-7974
1.3006000000000002,-0.8595376538020841,Tl8In8S16,mp-865274
0.4167000000000001,-0.30687765224999985,Na2Tl1Sb1,mp-866132
1.6543,-1.2830919329642865,K6Dy2As4S16,mp-866661
0.4793000000000001,-0.8200403476724141,Rb6Te6,mp-9064
0.5926000000000005,-1.597181092531251,K2Zr2Cu2S6,mp-9317
2.2499,-2.967215045972221,Ba2Pr4Pd2O10,mp-9759
1.2220000000000004,-1.237646900927999,La2W2N6,mp-989524
3.0533,-1.9651342548082995,Rb2Na1In1Cl6,mp-989547
0.4882,-0.7947591349280003,La2Co2N6,mp-989643
0.23179999999999976,-1.4663989522135417,Ti2S6,mp-9920
2.1334,-2.4088902497058835,Y4Cr6O24,mvc-12912
0.7332000000000001,-1.0261147,Tm1Tl1Te2,mp-1008561
0.4419,-0.8242588653181819,Na6Sr6Ga2As8,mp-10097
2.9786,-2.675959579625,Ca12Ga8Ge12O48,mp-1019565
2.403,-1.1749449961966665,Ca8Mg24Si8N32,mp-1019579
4.4731000000000005,-2.9743015594933153,Cs12Y4P8O32,mp-1019614
5.004,-2.9850390093418366,Na8Sr4Mg4P8O32,mp-1020180
4.9136,-2.2601451194230777,Sr4Si2S16O56,mp-1020612
5.6783,-3.1467957010648147,Sr4Be4B8O20,mp-1020654
3.8546,-2.5743482510043103,Rb8Ge6B12O34,mp-1020896
5.7495,-2.667927953552084,Na2Er2S4O16,mp-10476
5.0999,-4.303613788313334,Ho2O2F2,mp-1072114
1.3108000000000002,-0.5981208546355555,Sr2Fe1H6,mp-1078746
0.5004,-0.2963818005535717,K1Zn4P3,mp-1087504
1.9922,-1.576908495,Co4As8O16,mp-1096874
1.1898999999999995,-1.624286296666667,Eu4I8,mp-1102093
0.4954000000000001,-0.5799026016904761,Ba4In8P8,mp-1105940
5.2984,-3.0688441046473334,K2Li1In1F6,mp-1111671
2.4048,-1.4078606207758622,Cs2Rb1Sc1I6,mp-1112117
3.6002000000000005,-2.7343072920833333,Mg1Sn1B2O6,mp-11715
2.0465000000000004,-2.8285407612916673,Na24Ce12O36,mp-1173761
2.2971,-0.5053773448833612,Cs4H20N8,mp-1184037
0.5398999999999994,-1.2216077776470589,Y6Ni1I10,mp-1188535
1.0299,-2.4742381536875,Nd2Lu6S12,mp-1189434
4.8088,-3.346502518623,Na5Er4Si4O16F1,mp-1192584
2.8213,-2.7135065741954016,Rb4Ta4V8O32,mp-1194597
4.5280000000000005,-2.472182051621667,Na16Lu4C12O36F4,mp-1194756
4.2135,-3.1436530033828127,Na48Tm16Si48O144,mp-1195518
0.9802,-2.3112643037890632,Gd8Hf4S20,mp-1195809
0.23649999999999996,-2.4645415519459513,Cs4Fe4Ag4F24,mp-1196464
0.7290000000000001,-0.6854840561224489,Ba13Si6Sn8As22,mp-1197065
3.0197,-2.10385699502907,Ba24Te40Br8O100,mp-1197646
1.731,-0.4423340689732148,Cu4P16S12Br4,mp-1197804
1.1516000000000002,-1.2778621703040005,Ta8Te32Cl32O8,mp-1198418
1.4387,-0.03980199093749981,Cd4Sn4P56,mp-1199087
3.1558,-2.107468502106625,Zn18Te6P12Pb18O84,mp-1199741
3.9087,-2.361605752465896,Cs8Bi4P4W4O32,mp-1201858
5.344600000000002,-3.1359096118214294,Na4Ho4P8O28,mp-1203462
1.0490999999999993,-0.5731991679545455,Si28Tc16,mp-1203760
3.1514,-1.5508344738184614,Sm8N24O72,mp-1203930