band_gap,formation_energy_per_atom,full_formula,task_id
1.1421,-2.376519955013736,Co4P12O36,mp-759214
0.0,-1.5345978557142854,Ba2Pd4O8,mp-759541
0.0,-0.03058896249999954,Mn2Sb2,mp-786
1.4590000000000005,-2.343944997142858,Li2V2Sn2O8,mp-850189
0.0,-0.146504549166667,Ag1Hg1Pd2,mp-861501
0.0,-0.9992591412499996,Sc1Al1Ir2,mp-861507
0.0,-0.19044847708333323,Li1Zn1Ag2,mp-861625
0.0,-0.4401682152083346,Ti2Co1Re1,mp-861641
0.0,-0.19834476125000045,Li1Pm2Al1,mp-861948
0.0,-0.21856627999999922,Tc6Ir2,mp-862770
0.0,-0.12524324312499946,Pm2Cu6,mp-863677
0.0,-0.7479862962500006,Pm2Pd1Rh1,mp-863726
0.0,-0.4165681812500006,Pm2Ru1Rh1,mp-863742
0.0,-0.13645168499999993,Li1Mg1Tl2,mp-864597
0.0,-0.4501407858333331,Yb4Mg4Si4,mp-864619
0.0,-0.2521279512500003,Nb1Zn1Ru2,mp-864840
0.0,-0.36907180125000005,Dy1Cd1Hg2,mp-864884
0.0,-1.0361228616666665,Yb4Ga4Pt4,mp-864912
0.0,-0.3135100458333331,Dy2Mg1In1,mp-865007
0.35150000000000015,-0.479802882375,Na1Li2Bi1,mp-865101
0.0,-0.6393033633333332,Hf1Pd5,mp-865166
0.0,-0.6889223658333332,Ti2Mn1Ir1,mp-865569
2.027,-1.0840240681002156,Cs2Na2Se2,mp-8658
0.0,-0.42241420750000014,Yb2Cu1Ir1,mp-865845
0.0,-0.32244344874999964,Li1Zr2Os1,mp-865870
0.0,-0.29490533562499976,Hf2Zn1Re1,mp-866012
0.0,-0.6490739362499998,Mg1Sn1Rh2,mp-866073
0.0,-0.6867512016666666,Lu2Ag1Ir1,mp-866145
0.0,-0.7386742808333331,Y1In1Rh2,mp-866163
2.3407999999999998,-1.5891447830903125,Co2Mo2H4Se2O14,mp-866480
1.6663000000000001,-0.8917132402451511,Rb4Sn2Se6,mp-9145
0.0,-0.678274658333334,Zr2Sn2Te2,mp-9289
0.0,-0.23009909983333307,Na2Sn2Sb2,mp-952566
0.0,-0.4357781316666666,Sr2Zn2Si2,mp-9556
0.0,-0.33485144312500026,Sm1Tm1Tl2,mp-972541
0.0,-0.6242517362499997,Zr1Cd1Rh2,mp-977537
5.500500000000001,-2.709527097952,Ge1F4,mp-9816
0.0,-1.2055041651129996,Sr6Sn2N1O1,mp-989540
0.0,0.0,Ag3,mp-989737
0.0,-0.6129513512499996,Zr2Si2Cu2As2,mp-9929
1.3306,-1.3908916382112073,Rb1Sm1Te2,mp-999269
1.8354000000000001,-1.6775810247968752,Na1Nd1Se2,mp-999471
1.0821,-1.3569704242968745,Lu1Tl1Se2,mp-1001611
0.0,-0.8941502999999997,Ho2Au2,mp-1007666
0.0,-0.6904119558333335,La2Co2Si2,mp-1018740
3.6580000000000004,-2.8128911186551724,Cs16Si12O32,mp-1019713
0.0,-0.534914046666667,Yb2Bi4,mp-1024947
0.0,-0.5191017347619048,Lu1Ti2Ga4,mp-1025335
0.0,-0.6203439233928572,Er2Re2Si2C1,mp-1025362
0.9081000000000001,-2.2309176263175,Nb2Cl4O2,mp-1025567
0.1907000000000001,-0.45614809701756054,K30Re14N38,mp-1029863
0.0,-0.7471494095599994,Ca10Os4N12,mp-1029899
0.0,-0.4078954744759997,Cr3Pt1N1,mp-10374
0.0,-0.7166992960000002,Er2Al1Si2,mp-10529
0.0,-0.4460382299999999,Yb1Zn2Sb2,mp-1068431
0.0,-0.6261763554999987,Nd1Si3Os1,mp-1068775
0.0,-0.021823096666666448,Zr2Sc4,mp-1077791
0.0,-0.4570202395918364,Cd1P1Pd5,mp-1078100
0.0,-0.7673072529759992,La2Fe4As2N2,mp-1078491
0.0,-0.3027601137499998,Sm2Co2C4,mp-1079121
0.0,-0.6669049899999998,Tb6Co1Te2,mp-1079253
0.0,-0.6564671368750004,Sm2Cu2Sb4,mp-1080116
0.0,-0.437020833166666,Nd2B4Os4,mp-1080515
0.0,-0.9965887099999996,Al3Pt2,mp-10905
0.0,-0.46594519166666687,Sm4In2Ni4,mp-1095065
0.0,-0.6634437683333338,Tm8Au4,mp-1095690
0.0,-1.6296117203125,Ce8Se16,mp-1096430
0.0,-0.22980904916666725,Ho4Re8,mp-1102328
0.0,-1.0674894749999997,Sm4Ga4Pt4,mp-1102464
0.0,-0.6078176908333326,Nb4Ge4Rh4,mp-1102532
0.0,-1.1132188483333334,Ho4Ga4Pt4,mp-1102757
0.0,-0.9616878250000003,Yb8Pt4,mp-1102776
0.0,-0.8971756824999998,Er4Al4Pd4,mp-1102820
0.0,-1.037129891666666,Yb4Si4Pt4,mp-1102866
0.0,-1.1513134133333327,Tb4Al4Pt4,mp-1102944
0.0,-0.4700885811111111,Gd2Ni8B2,mp-1102948
0.0,-0.5367800058333341,Pr4Ga4Ni4,mp-1103558
0.0,-0.6348592407142866,Tb2Ni8As4,mp-1103784
0.0,-0.5176785152884619,Cr5Se8,mp-1104327
0.0,-0.9659314911111115,Lu10Te4Au4,mp-1105499
0.0,-0.17862932000000054,Ce1Sb12Os4,mp-1105726
0.0,-0.3448382521052637,Dy1Co12B6,mp-1106057
0.0,-0.6817333022222216,Er4Si8Mo6,mp-1106326
0.0,-0.8773146091666675,Sm4Sb4Ir4,mp-11160
0.0,-0.2064915358333336,Sc1Be5,mp-11277
0.0,-0.25530044666666757,Zr1Be5,mp-11283
0.383,-0.02496768513333317,Mg149Pb1,mp-1185570
0.0,-0.4676984185416666,Nd1Dy1In2,mp-1186359
0.0,-0.14982340416666684,Pm2Ag1Os1,mp-1186439
0.0,-0.3307083424999999,Pm2Tl1Zn1,mp-1186477
0.0,-0.16837928812500014,Pm6Hg2,mp-1186514
0.0,-0.41986170833333336,Sm2Cd1In1,mp-1187051
2.0177999999999994,-0.8527463144999997,Sr4H4N4,mp-1187172
6.0146999999999995,-0.44340607384583297,B2H12N2,mp-1188579
0.0,-0.5952511129831928,Pr1P12Os4,mp-1188990
0.0,-0.895071600625001,Pr4Si4Pd8,mp-1189045
0.0,-2.747200474200001,Na2Nd4Ru2O12,mp-11892
0.0,-0.17919314176470677,Ba1Fe4Sb12,mp-1189647
0.0,-0.5948979977083333,Ho4B8Os4,mp-1189925
2.2204,-1.037101193488637,Na4Cd2Ge4S12,mp-1190146
0.0,-0.4220201100000004,Gd1Er4Al15,mp-1190803
0.22849999999999993,-0.3347347728181818,K4Zn10As8,mp-1191100
0.0,-0.5600393249999994,Gd6Rh18,mp-1191219
0.0,-0.18508200208333334,Eu2Zn22,mp-1191536
0.0,-0.48364287322916627,Sm11In9Ni4,mp-1191859
0.0,-1.5355361242857144,La12Ir4Br12,mp-1192721
0.6317999999999999,-0.932376846059113,Cs8Co4I16,mp-1192894
0.0,-0.19227553446428583,La2Zn26,mp-1193170
0.0,-0.16191958614285712,K4Hg24,mp-1193208
0.0,-0.24435885793103443,V2Co21B6,mp-1193908
0.0,-0.9806413335542855,Zr16Pd8N4,mp-1194130
2.8982000000000006,-2.0662587194254662,Zn6Te4P4Pb4O28,mp-1195381
3.3487999999999998,-3.2283469777794114,K4Ta8O22,mp-1195471
2.1668999999999996,-1.9196258122430558,Sm32In8Sb8S72,mp-1196183
0.0,-0.8342591886111114,Tm20Ge16,mp-1196455
0.0,-2.160183795706,Sc40Os8Cl72,mp-1198309
0.0,-0.6890715152777784,Er8B24Os4,mp-1198965
0.0,-0.29739355500000003,Eu6Rh8Pb26,mp-1199220
1.2826999999999997,-1.1333193087913085,Cs24Re24S48,mp-1199798
0.0,-0.582148505,Sm20Pb16,mp-1200672
0.0,-0.783489365624999,Tb20Ir12,mp-1201266
0.0,-0.8697259152702695,Ho6Si22Pt46,mp-1201436
0.0,-0.4451308946874999,Nd1Al4Ge2Au1,mp-12018
0.0,-0.33756966174999975,Tb6Co8Sn26,mp-1201880
0.0,-0.5332680255769239,Eu8Si12Ni32,mp-1202253
0.6646000000000001,-0.840417735156251,Mn2Si2Cu4S8,mp-12023
0.0,-0.8330964740972225,Nd5Zr3Ni16As12,mp-1202368
0.0,-0.7935990900000003,Sr12Sn24Pt22,mp-1203634
4.7497,-3.767472147205898,Er16B4Cl4O28,mp-1204549
0.0,-0.735528321999999,Sm4Sc2Si4,mp-1205812
0.0,-3.2544415292499997,Sr2Ta1V1O6,mp-1205944
0.0,-0.48268612055555515,Ho3Mg3Ga3,mp-1205995
0.0,-0.38665247499999966,Dy4Mg2Ni4,mp-1206447
0.0,-0.2324829547500002,Ho1Ru3C1,mp-1206820
0.0,-0.6375783324571429,K1P2Ru2,mp-1207022
0.0,-0.4096469475,Sm1Hg2,mp-1207109
0.7471000000000001,-2.98680207668395,Zr6Ag2Hg6F40,mp-1207441
0.0,-1.0364736474829932,Zr12P2I28,mp-1207461
0.0,-0.9586952154761906,Yb5P7Pd9,mp-1207584
0.14579999999999993,-0.10550378399999971,Yb8Re4C8,mp-1207644
0.0,-0.5232621900000005,Y16Mg4Pt4,mp-1207810
0.0,-0.7133559675000001,Ta4Si4Pt4,mp-1208554
0.0,-0.13689798999999958,Cu3Pt1,mp-12086
0.0,-0.5851935785000002,Sm4Al12Ni4,mp-1208898
6.8674,-3.9702846196008044,Rb4Nd4F16,mp-1209225
4.719799999999999,-2.963257366808586,Rb3Y1P2O8,mp-1209357
0.0,-0.7802680846153851,Pr12Sn24Pd16,mp-1209527
0.0,-0.8389947780000007,Lu1Si2Ni2,mp-12100
0.0,-0.10356536000000045,Nd16Mg4Co4,mp-1210019
0.0,-2.109800164428571,Na4Y2Ir3O12,mp-1210185
4.3115,-2.0530007500846055,Mn8Tl8S12O48,mp-1210788
0.0,-0.5174706248076925,La2Al20Ru4,mp-1211269
3.1107000000000005,-2.729608143875,Li12Pr12Te8O48,mp-1211386
3.1169,-2.6326516127499993,K2Sc2W4O16,mp-1211497
3.3997,-2.76283112902463,K2Rb1Tm1V2O8,mp-1211717
0.0,-2.3023621748320005,K4Eu8Cl28,mp-1211760
0.0,-0.8115321108974362,Pr16Sb28Rh34,mp-1211805
0.6511,-3.495155954209479,K6Hf8Ag4F46,mp-1211819
0.0,-0.45853259624999954,Eu1Ga4Au3,mp-1212681
0.0,-0.8613044637499998,Eu2Si4Pt2,mp-1212688
0.0,-0.8355334749999995,Er3Si6Pd20,mp-1212872
0.04319999999999968,-0.858743903333334,Lu1In1Pd2,mp-12129
4.2,-2.6464013332776575,Cs1Sc1S2O8,mp-1213159
0.0,-0.8125149775000005,Ce4Si10Pd6,mp-1213852
0.9721000000000002,-1.7330419214821313,Cs4Nb24Cl60,mp-1214012
0.0,-0.6901898085897438,Ce6Ni20As13,mp-1214373
3.5474000000000006,-3.020312300231481,Ba12Ho4Ga8O30,mp-1214596
0.0,-2.397278261418918,Ba2Zn2Cr7Ga2Sn2O22,mp-1214629
0.0,-0.376049425882352,Ce46Cd8Ir14,mp-1214774
0.0,-0.09661863944444467,Ti1Nb1Cr4,mp-1216666
0.20949999999999935,-0.2821814450000001,Te8Mo4Ru2,mp-1217418
0.0,-2.322631462045456,Sm3Bi1Ru4O14,mp-1219209
2.7977,-2.620138084760536,Rb2Nb2W2O12,mp-1219587
1.0464,-2.424098120276092,Rb2Co2Ni2F12,mp-1219591
0.0,-0.5016921604166669,Pr1Nd1Al4,mp-1219707
0.0,-2.3577824998437507,Pr1Sm3S4,mp-1219738
0.0,-0.3316408342307693,Pr1Al6Fe6,mp-1219887
0.0,-0.9004256837698423,Lu5Co19P12,mp-1222910
0.0,-2.4084903886197915,Ho3Sc2S7,mp-1224056
1.6720999999999995,-2.645952142559524,Hf3Te1Pb4O13,mp-1224517
2.2679,-1.4889246389204687,Cs6Er10P12S48,mp-1226424
0.0,-0.9916646319999998,Ce1Si2Ru1Rh1,mp-1226491
0.0,-0.8617634168750001,Ce1Sc1Pd6,mp-1226501
0.0,-0.7510323799999995,Ce1Cu1Si2Pd1,mp-1226625
0.0,-0.5860630016666661,Ce1Pt2Au3,mp-1226653
3.5774999999999997,-3.427883165,Ca2Sm2Mg2Nb2O12,mp-1227140
0.0,-2.6309261139166664,Ba6Lu2Ir2Ru2O18,mp-1228300
0.0,-0.3258393472549019,Al37Fe12Cu2,mp-1228719
0.0,-1.2043390562992613,Rb4Cr8S16,mp-1239181
0.30180000000000007,-0.8027179279109095,Ca20Cu8N16,mp-1246246
0.0,-0.1296525224999998,Cr1Rh3,mp-12585
0.0,-0.38792331699999993,Pr1Al2Si2,mp-12856
0.0,-0.3036189394444442,Ca2Ag4,mp-13270
1.3519999999999999,-0.9809809090476188,Sr2Li2P2,mp-13276
0.0,-1.8702385261900005,Zr1N1,mp-1352
0.0,-0.5825579922321431,P12Rh4,mp-1357
0.0,-3.092149939,Ba2Tm1Re1O6,mp-13934
0.043400000000000105,-3.002156042083334,Li6Eu3Si3O12,mp-14629
6.9765999999999995,-3.846739267959999,Na8Sr8Al8F48,mp-14722
3.6193999999999997,-1.6492292262500001,As8O12,mp-1581
0.0,-0.7135850849999997,Ca1Ge2Pd2,mp-16260
0.0,-0.9222876719444442,Sm3Mg3Pt3,mp-16645
3.9912000000000005,-2.745340075765306,Ba2Mo4P8O28,mp-16802
1.3895999999999997,-1.227331047023333,Ba8V4N12,mp-17696
0.0,-0.4610158694444435,Ce4Al6Ge8,mp-18232
0.0,-0.6904059103571437,Ce4Sb6Pd18,mp-18287
3.9664,-2.612878819548702,Na4Mo4P8O28,mp-18435
0.0,-0.509158137380952,Mn6P3,mp-1849
2.8607,-2.440022437038863,Cs4Mo4P4O24,mp-18527
0.8786999999999998,-2.888670866651819,Y4Mn4O14,mp-18831
3.2558999999999996,-2.0019068766666663,Cd2W2O8,mp-19387
0.0,-0.2624497920833333,La1Ag1,mp-1948
0.0,-0.41724628095238103,Tb1In5Rh1,mp-20635
0.0,-0.7276084641666666,Sm3In3Rh3,mp-20789
0.0,-0.7803330895833334,Ti6Sn2C4,mp-21023
0.0,-0.65271205125,Ce4Si4,mp-21115
0.0,-0.7178014800000009,Tb4Ge4Ru4,mp-21310
0.0,-0.2087004835000002,Sn14Ru6,mp-22344
2.0634000000000006,-1.8010770450000007,Sn4Pb8O16,mp-22467
0.0,-0.22980869849999977,Pr8Re4C8,mp-22561
0.0,-0.08841466333333337,Pb4Au2,mp-22795
4.7534,-3.127453706315652,K8Al6Si6Cl2O24,mp-23149
0.012400000000000189,-1.1095534821733335,Fe1Cl2,mp-23229
1.9601000000000002,-1.0591781816075005,Bi4S4Cl4,mp-23318
1.0068000000000001,-0.2376950357142858,Ga2Te5,mp-2371
0.0,-3.691626921309167,Ti2F6,mp-246
6.6480999999999995,-1.6592724536486665,Be8H64N16F32,mp-24614
5.2758,-1.9497129761949998,Al2Cl6,mp-25469
0.0,-0.3478442230769228,Li18Ge8,mp-27932
7.4193,-1.6135467040921425,H16N2F10,mp-28124
1.8073000000000001,-1.4926975905992241,Cs1Br2F1,mp-28650
0.0,-1.359848603284445,Tl2Mo1Cl6,mp-29562
1.3262,-0.634920860202207,Re12S28Br28,mp-29599
0.05210000000000026,-1.1360257739285717,La6Ru2I6,mp-29824
0.9743999999999993,-1.981590910833333,Li2Sb6O16,mp-29892
0.0,-0.3852473283333335,Ba2Tl4,mp-30434
0.0,-0.33169762937500025,Tb1Ni1C2,mp-3061
0.0,-0.31901400375000044,Ti6Ga2,mp-30672
0.0,-0.584353324583334,La1Pd5,mp-30753
0.0,-0.41372710916666655,Ba4In4,mp-31509
0.0,-0.8796739000000002,Yb4Sn4Pd4,mp-3204
0.0,-0.8244566563333336,Er1B1Rh3,mp-3769
0.6128999999999998,-1.9293486451785722,Sc4Mn2S8,mp-3930
0.0,-1.5332723649404778,Ti4Cu2S8,mp-3951
0.0,-0.49840578750000003,Nd2Al4,mp-400
0.0,-0.5872061610000003,Ho1Si2Cu2,mp-4105
0.0,-0.5843960186904766,Nb6Co8B14,mp-4212
0.0,-0.6920761355000004,Nd1Ni2Ge2,mp-4302
0.0,-1.0081766175000002,Zr2Br2,mp-504594
0.0,-0.6998802354276317,Ta4Co2Pd1Se12,mp-505133
2.0594000000000006,-3.2297930679166678,Ba4Tm8Co4O20,mp-505193
0.006300000000000416,-0.44442611600000037,Eu2Cu4Sb4,mp-505769
0.0,-0.7690908613333335,Ce1B1Rh3,mp-510376
0.0,-0.7077110262500002,Dy20Co4Sb8,mp-510593
2.857,-1.834614398496917,K4Co6H12S6O32,mp-510629
0.0,-0.16082100229166643,La2Mg4Cu18,mp-510643
0.0,-0.5238876774999999,Li1Ga2Pd1,mp-5159
0.10969999999999969,-1.092112937596154,Sr56Mn4As44,mp-530564
5.204,-3.7728909301499995,Zr12Bi4F60,mp-532290
0.8092999999999999,-1.1816039267500003,Nb2I6O2,mp-546285
4.399100000000001,-2.4746916455172916,Sm4Se4Cl4O12,mp-554063
2.1927000000000003,-2.6330508896500002,K8Sr4V12O36,mp-554684
4.7207,-2.64764175085249,Rb2Li14Si4O16,mp-554752
0.9950000000000001,-2.47034537264881,Mo4P8Pb4O32,mp-555025
0.0,-2.2757742802187506,Na6Eu2C6O18,mp-555099
1.5051,-2.0428965546874998,Gd2S2I2,mp-556135
4.0040000000000004,-3.094809090305555,Na16Zr8Si8O40,mp-556709
2.6883999999999997,-2.41837587,Ba4V8Te4O32,mp-556790
0.6016,-1.9254735172566662,Os8O12F28,mp-557132
1.3099999999999996,-2.48291572495,Cr4Sb4F40,mp-557145
1.9892,-1.6324935988541673,V8Se16O48,mp-557295
3.1513999999999998,-2.1095286400833335,K20Li4Ge8O28,mp-557473
0.0,-2.663576054772727,Sr8Rh2O12,mp-557481
3.6385,-3.060705634634616,K6Sc2Si4O14,mp-557577
3.8015999999999996,-3.3296257832440475,Pr6B2W2O18,mp-558051
2.9435000000000002,-2.3582249474062507,K12Nb4S16O64,mp-559516
2.8651,-2.612696162386365,Nd4Ga4Ge8O28,mp-559748
1.8688000000000002,-1.3715016462376854,Cs8Mo4S16,mp-560635
5.0369,-2.9488047949053793,Cs2Na1Bi1F6,mp-560790
0.0,-1.2463670006249998,Y18C8I16O2,mp-561015
7.9633,-3.574627102737777,Be12F24,mp-561543
0.0,-0.4896190405555565,Tm1B2Ru3,mp-5620
0.0,-0.8376703924999997,Nd2Sn2Au2,mp-5646
0.0,-0.1818617180769232,Ga32Cu12Mo8,mp-567502
0.0,-0.7555131122222226,Dy3In3Rh3,mp-567588
0.0,-0.5105872549999992,Dy4Sn10,mp-568064
0.0,-0.19472513000000014,Mg3Bi2,mp-569018
0.0,-0.3010303212962964,Yb4Ag14,mp-569486
0.0,-0.10726644291666669,Er3Fe9,mp-569783
0.0,-0.19578442785714348,Al12Fe2,mp-570001
0.0,-0.23401087250000016,Ca20Ir4,mp-570356
1.8901000000000001,-0.5419518388392858,Ga8Bi4Se16,mp-571085
0.0,-0.7618830119999999,Hf1Co2Si2,mp-571367
1.1686999999999999,-0.5619842106418753,Re6Se8Cl2,mp-580748
0.0,-0.5009233476041667,Pr21Fe8Bi7C12,mp-582883
4.9339,-3.049982884768518,Ba4Li2B10O20,mp-6075
0.0,-0.4130083139583327,Sc8Cr4C12,mp-608543
4.313,-2.765418475038931,Rb8P4O12F4,mp-6160
0.0,-0.6443762410000005,Y4Ge10Ru6,mp-620812
0.0,-0.2660497240000012,Eu8Ir2,mp-623108
0.0,-1.0557743508333328,Ce8Ge8Pt8,mp-627355
2.3549,-1.3703571673800001,K8I8Cl16,mp-628908
0.0,-0.33967158888888943,Ba2In8Ir2,mp-639150
0.0,-0.6070399852777774,Lu24Cu4Te8,mp-642315
0.0,-0.5346448612500003,Gd2Ga4Co2,mp-648086
2.7718,-2.654433963278194,Cr24B56Cl8O104,mp-653248
1.4987000000000001,-0.22400070012648854,Ga8Ag8P16Se48,mp-654129
3.6487,-2.867858530402778,Ba2Na2B2O6,mp-6660
0.0,-0.2703977241666662,Ce1In1Ag2,mp-672191
1.0037000000000003,-1.9304694625000007,Fe1Sb1O4,mp-674490
4.009,-2.9990889709615383,Ba4Ga8Si8O32,mp-6759
0.7563999999999993,-0.37608639978515646,Tl9Bi1Se6,mp-675989
0.0,-1.3899561960897437,Ta8Ag2S16,mp-677597
0.0,-0.08209186797604784,Na26Cd141,mp-680434
0.0,-0.1487200887500011,Zr10Pb6,mp-681992
1.9001000000000001,-0.4831131437412064,Rb2H4N2,mp-697144
2.1555,-3.481443078313333,Yb4O4F4,mp-7028
2.037,-2.2559393712083335,Ca8V12Ni8Ag4O48,mp-705890
0.0,-0.2931657882499998,La3Tl1C1,mp-7159
0.0,-0.22825339499999986,Li3Tl1,mp-7396
0.0,-0.11670133444444512,Ti2Cu1,mp-742
0.03529999999999944,-2.8468659197500004,Sr8Mg3Fe1Mo4O24,mp-744025
0.9986999999999999,-2.559228465113638,Y4Pb4O14,mp-752849
0.0,-0.8653247869318182,Hg4Pt4O14,mp-755465
3.2411000000000003,-3.055845253625,Na2La2O4,mp-755586
0.0,-0.4450644538888895,Al2B2Mo2,mp-7574
0.0,-2.091424373756296,Li4Ag2F12,mp-765413
0.0,-2.239357031447368,Sr16Ru12O48,mp-766284
2.6294,-1.812368890142857,K8Te4O16,mp-773785
0.0,-1.7983776419948387,K11Mn4O16,mp-775539
0.0,-1.0943524699999996,Lu1Pt3,mp-790
0.0,-0.663855686666667,Tm2Si2Cu2,mp-8123
7.049099999999999,-3.910027932955379,Cs1Yb1F3,mp-8398
0.0,-0.5437803160416669,Cu2S4,mp-849086
0.0,-0.49116158499999996,Ca2Tl1Pb1,mp-861604
0.0,-0.24288117499999995,Li1Y2Al1,mp-862555
1.8701999999999999,-1.0696888047547126,K4In2P4S14,mp-862780
0.0,-0.6889341906250004,Nd1Sn1Au2,mp-864668
0.0,-1.0260858449999999,Hf1Al1Rh2,mp-864671
0.0,-0.6933248483333339,Hf1In1Pd2,mp-864734
0.0,-0.30846636083333356,Yb2Mg1In1,mp-864756
0.0,-0.7350872822222227,Ti6Fe6Si6,mp-8648
0.0,-0.7443452583333334,Tb1In1Rh2,mp-864876
0.0,-0.2758647360000004,Na2Tl1Bi1,mp-864898
0.0,-0.21267914987500003,Na1Er1Tl2,mp-865117
0.0,-0.36100332916666744,Dy2Ag1Ru1,mp-865161
0.0,-0.7597692325000001,Lu2Ir1Ru1,mp-865321
0.0,-0.7114921954761894,Lu2Mn12P7,mp-865350
0.0,-0.24132551249999956,Tm2Mg1Ru1,mp-865363
0.0,-0.2909755308333324,Li2Gd1In1,mp-865483
0.0,-0.5788794941666664,Ti1Mn1Rh2,mp-865523
0.0,-0.4815561016666665,Yb2Ag1Ir1,mp-865616
0.0,-0.5226191891666665,Yb2Ag1Pb1,mp-865662
0.0,-0.26555934000000025,Cd2Pd1Rh1,mp-865926
0.0,-0.7418124508333328,Ti2Tc1Pt1,mp-865928
0.0,-0.26499103625000053,Cd1Pd3,mp-865985
3.1318,-3.315422175341111,Ba4Gd2B4Cl2O12,mp-866304
0.0,-0.7722522662499998,Sm2Ir1Pd1,mp-867142
0.0,-0.35683924874999917,Sc16Ni8,mp-867501
0.0,-2.2922548158214284,Ba16Bi12O42,mp-867542
0.0,-2.3066612821000003,Ba2W12O36,mp-867545
0.0,-0.8411609345833329,Sc1In1Rh2,mp-867842
0.0,-0.5979650568750001,Sm1Zn1Au2,mp-867860
0.0,-0.5975636509090908,Lu2Ni3B6,mp-8771
0.9531000000000001,-0.9110195786359553,Rb6Se6,mp-9063
0.04999999999999982,-0.6573360454233335,Nd6H18,mp-976578
0.0,-0.5645223575000005,Li1Lu2Rh1,mp-977405
0.0,-0.11838002500000044,Zr3Tl1,mp-977585
0.0,-0.6645299802777771,Ho4Mn4B16,mp-978098
0.42579999999999973,-0.5158538909049994,Sr1Ga1Ge1H1,mp-978847
0.0,-0.713288412,Sr1Ge2Pd2,mp-978986
0.0,-0.5164161120689655,Sc6Ga16Ru7,mp-979260
0.0,-0.8737457337499999,Yb1Pr1Au2,mp-980053
0.0,-0.01619657230769178,Tm1Mn12,mp-980811
2.8053999999999997,-3.424352703295456,Y6Sb2O14,mp-981511
0.0,-0.2841723499999995,Tm1Cu1,mp-985
0.0,-0.5217534027083328,Y8B16C8,mp-9880
0.0,-2.9828901504053795,Cs2Na1Mg1F6,mp-989568
0.0,-0.8812939575000001,Tb2Au2,mp-999141
3.7402,-3.3788936565174996,Ca1W1F6,mvc-15846
0.04380000000000006,-1.0278202493099997,Eu2H3Br1,mp-1018691
5.8034,-2.864002984052197,Al4P12O36,mp-1019377
3.7409,-2.6298710778873637,K8P4O14,mp-1019796
0.0,-0.6229620201388878,Nd1B2Ir3,mp-1025068
0.0,-0.5791594083928574,Pr2Fe2Si2C1,mp-1025194
0.0,-0.5834766312500008,Ce2Ga4Ni2,mp-1025446
0.0,-0.14146809999999968,Mg2Cu4,mp-1038
0.0,-0.34300286725000007,Sm3Tl1C1,mp-10606
0.0,-0.6667533407499995,Lu3Sn1C1,mp-10609
0.0,-0.5008946590000001,Pr2Ni2Sn1,mp-1068489
0.0,-0.6968218424999997,Nd1Si3Ru1,mp-1069041
1.3499999999999999,-0.023339730328663766,Rb32Si32,mp-1074
0.0,-0.24530956333333384,Gd2Cu4,mp-1077933
0.0,-0.2720919363541663,Pr4B2C2,mp-1078268
0.0,-0.6577698590000004,Eu2Ga6Pd2,mp-1078429
0.04109999999999969,-2.0387523152499996,Sr2Ni1Ir1O6,mp-1078518
0.0,-0.4278868762500001,Mg2Ga2Au4,mp-1079175
0.0,-0.27434891187499977,Ba1Mg4Si3,mp-1079433
0.0,-0.7286859836111108,La3Hg3Pd3,mp-1079780
0.0,-1.1078876254999996,Nd2Si4Pt4,mp-1084815
0.0,-0.005526576249999415,Cr2Co6,mp-1087479
0.0,-0.6270914587499998,Sc1Al1Ni2,mp-10898
0.0,-0.36778178916666704,Hf4Tc8,mp-1095669
0.17980000000000018,-1.7953194130208339,Nd4As4S4,mp-1101764
2.5976999999999997,-0.5601528182138095,Zn4P2N6,mp-1102523
0.0,-0.2942209733333332,Er8Al4,mp-1102875
0.0,-0.5291980024999994,Nb4Ge4Pt4,mp-1103346
0.0,-0.20876114916666685,Ti3Be9,mp-1103465
0.0,-1.1456092946428567,Sm6Pt8,mp-1104800
0.03569999999999984,-0.6253678400000003,Eu4Cd4Au4,mp-11084
5.0917,-2.480676122197379,Cs2Li1Dy1Cl6,mp-1113018
0.0,-1.5759689606249996,Ca2Cu6O8,mp-1147653
2.5381,-1.248209161916667,K4Zn6S8,mp-1147664
0.0,-0.3271491039583334,Ca1Nd1Ag2,mp-1183555
0.0,-0.4733588974999998,Li1Mg2Au1,mp-1185365
0.014100000000000001,-0.030226509733333084,Mg149Pd1,mp-1185580
0.0,-0.4762276700000001,Mg1Mn1Pd2,mp-1185892
0.0,-0.6162989668750001,Nd1Gd1Ir2,mp-1186378
0.0,-0.3437071699999996,Pm2Al1Cd1,mp-1186432
0.0,-0.12130563125000027,Pm2Co1Ni1,mp-1186456
0.0,-0.6213174012500002,Pr1Pb1Au2,mp-1186469
0.0,-0.19359583312499984,Pm1Cd1Cu2,mp-1186550
0.0,-0.47895758854166637,Pm1Gd1In2,mp-1186624